
                                 *****************
                                 * O   R   C   A *
                                 *****************

                                            #,                                       
                                            ###                                      
                                            ####                                     
                                            #####                                    
                                            ######                                   
                                           ########,                                 
                                     ,,################,,,,,                         
                               ,,#################################,,                 
                          ,,##########################################,,             
                       ,#########################################, ''#####,          
                    ,#############################################,,   '####,        
                  ,##################################################,,,,####,       
                ,###########''''           ''''###############################       
              ,#####''   ,,,,##########,,,,          '''####'''          '####       
            ,##' ,,,,###########################,,,                        '##       
           ' ,,###''''                  '''############,,,                           
         ,,##''                                '''############,,,,        ,,,,,,###''
      ,#''                                            '''#######################'''  
     '                                                          ''''####''''         
             ,#######,   #######,   ,#######,      ##                                
            ,#'     '#,  ##    ##  ,#'     '#,    #''#        ,####,   ,####,        
            ##       ##  ##   ,#'  ##            #'  '#       #'       #'  '#        
            ##       ##  #######   ##           ,######,      #####,   #    #        
            '#,     ,#'  ##    ##  '#,     ,#' ,#      #,     #,   #   #,  ,#        
             '#######'   ##     ##  '#######'  #'      '#     '####' # '####'        



                #########################################################
                #                        -***-                          #
                #          Department of theory and spectroscopy        #
                #                                                       #
                #                      Frank Neese                      #
                #                                                       #
                #     Directorship, Architecture, Infrastructure        #
                #                    SHARK, DRIVERS                     #
                #        Core code/Algorithms in most modules           #
                #                                                       #
                #        Max Planck Institute fuer Kohlenforschung      #
                #                Kaiser Wilhelm Platz 1                 #
                #                 D-45470 Muelheim/Ruhr                 #
                #                      Germany                          #
                #                                                       #
                #                  All rights reserved                  #
                #                        -***-                          #
                #########################################################


                         Program Version 6.0.0  -   RELEASE  -


 With contributions from (in alphabetic order):
   Daniel Aravena         : Magnetic Suceptibility
   Michael Atanasov       : Ab Initio Ligand Field Theory (pilot matlab implementation)
   Alexander A. Auer      : GIAO ZORA, VPT2 properties, NMR spectrum
   Ute Becker             : All parallelization in ORCA, NUMFREQ, NUMCALC
   Giovanni Bistoni       : ED, misc. LED, open-shell LED, HFLD
   Martin Brehm           : Molecular dynamics
   Dmytro Bykov           : pre 5.0 version of the SCF Hessian
   Marcos Casanova-Páez   : Triplet and SCS-CIS(D). UHF-(DLPNO)-IP/EA/STEOM-CCSD. UHF-CVS-IP/STEOM-CCSD
   Vijay G. Chilkuri      : MRCI spin determinant printing, contributions to CSF-ICE
   Pauline Colinet        : FMM embedding
   Dipayan Datta          : RHF DLPNO-CCSD density
   Achintya Kumar Dutta   : EOM-CC, STEOM-CC
   Nicolas Foglia         : Exact transition moments, OPA infrastructure, MCD improvements
   Dmitry Ganyushin       : Spin-Orbit,Spin-Spin,Magnetic field MRCI
   Miquel Garcia          : C-PCM and meta-GGA Hessian, CCSD/C-PCM, Gaussian charge scheme
   Tiago L. C. Gouveia    : GS-ROHF, GS-ROCIS
   Yang Guo               : DLPNO-NEVPT2, F12-NEVPT2, CIM, IAO-localization
   Andreas Hansen         : Spin unrestricted coupled pair/coupled cluster methods
   Ingolf Harden          : AUTO-CI MPn and infrastructure 
   Benjamin Helmich-Paris : MC-RPA, TRAH-(SCF,CASSCF), AVAS, COSX integrals, SCF dyn. polar.
   Lee Huntington         : MR-EOM, pCC
   Robert Izsak           : Overlap fitted RIJCOSX, COSX-SCS-MP3, EOM
   Riya Kayal             : Wick's Theorem for AUTO-CI, AUTO-CI UHF-CCSDT
   Emily Kempfer          : AUTO-CI, RHF CISDT and CCSDT
   Christian Kollmar      : KDIIS, OOCD, Brueckner-CCSD(T), CCSD density, CASPT2, CASPT2-K, improved NEVPT2
   Axel Koslowski         : Symmetry handling
   Simone Kossmann        : Meta GGA functionals, TD-DFT gradient, OOMP2, (MP2 Hessian; deprecated post 5.0)
   Lucas Lang             : DCDCAS
   Marvin Lechner         : AUTO-CI (C++ implementation), FIC-MRCC
   Spencer Leger          : CASSCF response
   Dagmar Lenk            : GEPOL surface, SMD, ORCA-2-JSON
   Dimitrios Liakos       : Extrapolation schemes; Compound Job, initial MDCI parallelization
   Dimitrios Manganas     : Further ROCIS development; embedding schemes. LFT, Crystal Embedding
   Dimitrios Pantazis     : SARC Basis sets
   Anastasios Papadopoulos: AUTO-CI, single reference methods and gradients
   Taras Petrenko         : pre 6.0 DFT Hessian and TD-DFT gradient, (ASA, deprecated), ECA, 1-Electron XAS/XES, NRVS
   Peter Pinski           : DLPNO-MP2, DLPNO-MP2 Gradient
   Christoph Reimann      : Effective Core Potentials
   Marius Retegan         : Local ZFS, SOC
   Christoph Riplinger    : Optimizer, TS searches, QM/MM, DLPNO-CCSD(T), (RO)-DLPNO pert. Triples
   Michael Roemelt        : Original ROCIS implementation
   Masaaki Saitow         : Open-shell DLPNO-CCSD energy and density
   Barbara Sandhoefer     : DKH picture change effects
   Kantharuban Sivalingam : CASSCF convergence/infrastructure, NEVPT2 and variants, FIC-MRCI
   Bernardo de Souza      : ESD, SOC TD-DFT
   Georgi Stoychev        : AutoAux, RI-MP2 NMR, DLPNO-MP2 response, X2C
   Van Anh Tran           : RI-MP2 g-tensors
   Willem Van den Heuvel  : Paramagnetic NMR
   Zikuan Wang            : NOTCH, Electric field optimization 
   Frank Wennmohs         : Technical directorship and infrastructure
   Hang Xu                : AUTO-CI-Response properties 


 We gratefully acknowledge several colleagues who have allowed us to
 interface, adapt or use parts of their codes:
   Stefan Grimme, W. Hujo, H. Kruse, P. Pracht,  : VdW corrections, initial TS optimization,
                  C. Bannwarth, S. Ehlert,         DFT functionals, gCP, sTDA/sTD-DF
                  L. Wittmann, M. Mueller
   Ed Valeev, F. Pavosevic, A. Kumar             : LibInt (2-el integral package), F12 methods
   Garnet Chan, S. Sharma, J. Yang, R. Olivares  : DMRG
   Ulf Ekstrom                                   : XCFun DFT Library
   Mihaly Kallay                                 : mrcc  (arbitrary order and MRCC methods)
   Frank Weinhold                                : gennbo (NPA and NBO analysis)
   Simon Mueller                                 : openCOSMO-RS
   Christopher J. Cramer and Donald G. Truhlar   : smd solvation model
   Lars Goerigk                                  : TD-DFT with DH, B97 family of functionals
   V. Asgeirsson, H. Jonsson                     : NEB implementation
   FAccTs GmbH                                   : IRC, NEB, NEB-TS, DLPNO-Multilevel, CI-OPT
                                                   MM, QMMM, 2- and 3-layer-ONIOM, Crystal-QMMM,
                                                   LR-CPCM, SF, NACMEs, symmetry and pop. for TD-DFT,
                                                   nearIR, NL-DFT gradient (VV10), updates on ESD,
                                                   ML-optimized integration grids, MBIS, APM,
                                                   GOAT, DOCKER, SOLVATOR, interface openCOSMO-RS
   S Lehtola, MJT Oliveira, MAL Marques          : LibXC Library
   Liviu Ungur et al                             : ANISO software


 Your calculation uses the libint2 library for the computation of 2-el integrals
 For citations please refer to: http://libint.valeyev.net

 Your ORCA version has been built with support for libXC version: 6.2.2
 For citations please refer to: https://libxc.gitlab.io

 This ORCA versions uses:
   CBLAS   interface :  Fast vector & matrix operations
   LAPACKE interface :  Fast linear algebra routines
   SCALAPACK package :  Parallel linear algebra routines
   Shared memory     :  Shared parallel matrices


Warning: RI is on but no J-basis has been assigned. Assigning Def2/J (nothing to worry about!)
================================================================================

cite the ECPs for I  [Def2-ECP] as follows:
Ce-Yb(ecp-28): M. Dolg, H. Stoll, H.Preuss, J. Chem. Phys., 1989, 90, 1730-1734.
Y-Cd(ecp-28), Hf-Hg(ecp-46): D. Andrae,U. Haeussermann, M. Dolg, H. Stoll, H. Preuss, Theor. Chim. Acta, 1990, 77, 123-141.
In-Sb(ecp-28), Tl-Bi(ecp-46): B. Metz, H. Stoll, M. Dolg, J. Chem. Phys., 2000, 113, 2563-2569.
Te-Xe(ecp-28), Po-Rn(ecp-46): K. A. Peterson, D. Figgen, E. Goll, H. Stoll, M. Dolg, J. Chem. Phys., 2003, 119, 11113-11123.
Rb(ecp-28), Cs(ecp-46): T. Leininger, A. Nicklass, W. Kuechle, H. Stoll, M. Dolg, A. Bergner, Chem. Phys. Lett., 1996, 255, 274-280.
Sr(ecp-28), Ba(ecp-46): M. Kaupp, P. V. Schleyer, H. Stoll and H. Preuss, J. Chem. Phys., 1991, 94, 1360-1366.
La(ecp-46): M. Dolg, H. Stoll, A. Savin, H. Preuss, Theor. Chim. Acta, 1989, 75, 173-194.
Lu(ecp-28): X. Cao, M. Dolg, J. Chem. Phys., 2001, 115, 7348-7355.

ECP parameters for I  [Def2-ECP] have been obtained from:
TURBOMOLE (7.0.2)

----- Orbital basis set information -----
Your calculation utilizes the basis: def2-TZVP
   F. Weigend and R. Ahlrichs, Phys. Chem. Chem. Phys. 7, 3297 (2005).

----- AuxJ basis set information -----
Your calculation utilizes the auxiliary basis: def2/J
   F. Weigend, Phys. Chem. Chem. Phys. 8, 1057 (2006).

================================================================================
                                        WARNINGS
                       Please study these warnings very carefully!
================================================================================

INFO   : Checking CIS options ...

WARNING: CIS/ROCIS methods need fully converged wavefunctions
  ===> : Setting SCFConvForced true
         You can overwrite this default with %scf ConvForced false 


================================================================================
                                       INPUT FILE
================================================================================
NAME = ICl_TDDFT_g.inp
|  1> !B3LYP def2-TZVP
|  2> 
|  3> %TDDFT
|  4>    NROOTS   30
|  5> END
|  6> *xyz 0 1
|  7> Cl         -5.30115948228516      0.81845000000000      0.00000000000000
|  8> I          -2.95506051771484      0.81845000000000      0.00000000000000
|  9> **                         ****END OF INPUT****
================================================================================

                       ****************************
                       * Single Point Calculation *
                       ****************************

---------------------------------
CARTESIAN COORDINATES (ANGSTROEM)
---------------------------------
  Cl    -5.301159    0.818450    0.000000
  I     -2.955061    0.818450    0.000000

----------------------------
CARTESIAN COORDINATES (A.U.)
----------------------------
  NO LB      ZA    FRAG     MASS         X           Y           Z
   0 Cl   17.0000    0    35.453  -10.017740    1.546646    0.000000
   1 I    25.0000*   0   126.900   -5.584255    1.546646    0.000000
* core charge reduced due to ECP

--------------------------------
INTERNAL COORDINATES (ANGSTROEM)
--------------------------------
 Cl     0   0   0     0.000000000000     0.00000000     0.00000000
 I      1   0   0     2.346098964570     0.00000000     0.00000000

---------------------------
INTERNAL COORDINATES (A.U.)
---------------------------
 Cl     0   0   0     0.000000000000     0.00000000     0.00000000
 I      1   0   0     4.433484526114     0.00000000     0.00000000

---------------------
BASIS SET INFORMATION
---------------------
There are 2 groups of distinct atoms

 Group   1 Type Cl  : 14s9p3d1f contracted to 5s5p2d1f pattern {73211/51111/21/1}
 Group   2 Type I   : 11s10p8d2f contracted to 6s5p3d2f pattern {521111/34111/611/11}

Atom   0Cl   basis set group =>   1
Atom   1I    basis set group =>   2
---------------------------------
AUXILIARY/J BASIS SET INFORMATION
---------------------------------
There are 2 groups of distinct atoms

 Group   1 Type Cl  : 14s5p5d2f1g contracted to 8s4p3d1f1g pattern {71111111/2111/311/2/1}
 Group   2 Type I   : 11s5p5d3f1g contracted to 8s4p3d2f1g pattern {41111111/2111/311/21/1}

Atom   0Cl   basis set group =>   1
Atom   1I    basis set group =>   2
-------------------------
ECP PARAMETER INFORMATION
-------------------------

 Group 1, Type I  ECP Def2-ECP (replacing 28 core electrons, lmax=3)

Atom   1I    ECP group =>   1

------------------------------------------------------------------------------
                             ORCA STARTUP CALCULATIONS
                           -- RI-GTO INTEGRALS CHOSEN --
------------------------------------------------------------------------------
------------------------------------------------------------------------------
                   ___                                                        
                  /   \      - P O W E R E D   B Y -                         
                 /     \                                                     
                 |  |  |   _    _      __       _____    __    __             
                 |  |  |  | |  | |    /  \     |  _  \  |  |  /  |          
                  \  \/   | |  | |   /    \    | | | |  |  | /  /          
                 / \  \   | |__| |  /  /\  \   | |_| |  |  |/  /          
                |  |  |   |  __  | /  /__\  \  |    /   |      \           
                |  |  |   | |  | | |   __   |  |    \   |  |\   \          
                \     /   | |  | | |  |  |  |  | |\  \  |  | \   \       
                 \___/    |_|  |_| |__|  |__|  |_| \__\ |__|  \__/        
                                                                              
                      - O R C A' S   B I G   F R I E N D -                    
                                      &                                       
                       - I N T E G R A L  F E E D E R -                       
                                                                              
 v1 FN, 2020, v2 2021, v3 2022-2024                                           
------------------------------------------------------------------------------


----------------------
SHARK INTEGRAL PACKAGE
----------------------

Number of atoms                             ...      2
Number of basis functions                   ...     87
Number of shells                            ...     29
Maximum angular momentum                    ...      3
Integral batch strategy                     ... SHARK/LIBINT Hybrid
RI-J (if used) integral strategy            ... SPLIT-RIJ (Revised 2003 algorithm where possible)
Printlevel                                  ...      1
Contraction scheme used                     ... SEGMENTED contraction
Prescreening option                         ... SCHWARTZ
   Thresh                                   ... 1.000e-10
   Tcut                                     ... 1.000e-11
   Tpresel                                  ... 1.000e-11 
Coulomb Range Separation                    ... NOT USED
Exchange Range Separation                   ... NOT USED
Multipole approximations                    ... NOT USED
Finite Nucleus Model                        ... NOT USED
CABS basis                                  ... NOT available
Auxiliary Coulomb fitting basis             ... AVAILABLE
   # of basis functions in Aux-J            ...    109
   # of shells in Aux-J                     ...     35
   Maximum angular momentum in Aux-J        ...      4
Auxiliary J/K fitting basis                 ... NOT available
Auxiliary Correlation fitting basis         ... NOT available
Auxiliary 'external' fitting basis          ... NOT available

Checking pre-screening integrals            ... done (  0.0 sec) Dimension = 29
Check shell pair data                       ... done (  0.0 sec)
Shell pair information
Shell pair cut-off parameter TPreSel        ...   1.0e-11
Total number of shell pairs                 ...       435
Shell pairs after pre-screening             ...       414
Total number of primitive shell pairs       ...      1782
Primitive shell pairs kept                  ...      1418
          la=0 lb=0:     58 shell pairs
          la=1 lb=0:    102 shell pairs
          la=1 lb=1:     53 shell pairs
          la=2 lb=0:     55 shell pairs
          la=2 lb=1:     50 shell pairs
          la=2 lb=2:     15 shell pairs
          la=3 lb=0:     31 shell pairs
          la=3 lb=1:     29 shell pairs
          la=3 lb=2:     15 shell pairs
          la=3 lb=3:      6 shell pairs

Calculating one electron integrals          ... done (  0.0 sec)
Calculating ECP integrals                   ... done (  0.0 sec)
Calculating RI/J V-Matrix + Cholesky decomp.... done (  0.0 sec)
Calculating Nuclear repulsion               ... done (  0.0 sec) ENN=     95.861392432220 Eh

Diagonalization of the overlap matrix:
Smallest eigenvalue                        ... 5.481e-03
Time for diagonalization                   ...    0.006 sec
Threshold for overlap eigenvalues          ... 1.000e-07
Number of eigenvalues below threshold      ... 0
Time for construction of square roots      ...    0.001 sec
Total time needed                          ...    0.006 sec

-------------------
DFT GRID GENERATION
-------------------

General Integration Accuracy     IntAcc      ... 4.388
Radial Grid Type                 RadialGrid  ... OptM3 with GC (2021)
Angular Grid (max. ang.)         AngularGrid ... 4 (Lebedev-302)
Angular grid pruning method      GridPruning ... 4 (adaptive)
Weight generation scheme         WeightScheme... mBecke (2022)
Basis function cutoff            BFCut       ... 1.0000e-10
Integration weight cutoff        WCut        ... 1.0000e-14
Partially contracted basis set               ... off
Rotationally invariant grid construction     ... off
Angular grids for H and He will be reduced by one unit

Total number of grid points                  ...    19154
Total number of batches                      ...      301
Average number of points per batch           ...       63
Average number of grid points per atom       ...     9577

--------------------
COSX GRID GENERATION
--------------------

GRIDX 1
-------
General Integration Accuracy     IntAcc      ... 3.816
Radial Grid Type                 RadialGrid  ... OptM3 with GC (2021)
Angular Grid (max. ang.)         AngularGrid ... 1 (Lebedev-50)
Angular grid pruning method      GridPruning ... 4 (adaptive)
Weight generation scheme         WeightScheme... mBecke (2022)
Basis function cutoff            BFCut       ... 1.0000e-10
Integration weight cutoff        WCut        ... 1.0000e-14
Partially contracted basis set               ... on
Rotationally invariant grid construction     ... off
Angular grids for H and He will be reduced by one unit

Total number of grid points                  ...     8216
Total number of batches                      ...       65
Average number of points per batch           ...      126
Average number of grid points per atom       ...     4108
UseSFitting                                  ... on

GRIDX 2
-------
General Integration Accuracy     IntAcc      ... 4.020
Radial Grid Type                 RadialGrid  ... OptM3 with GC (2021)
Angular Grid (max. ang.)         AngularGrid ... 2 (Lebedev-110)
Angular grid pruning method      GridPruning ... 4 (adaptive)
Weight generation scheme         WeightScheme... mBecke (2022)
Basis function cutoff            BFCut       ... 1.0000e-10
Integration weight cutoff        WCut        ... 1.0000e-14
Partially contracted basis set               ... on
Rotationally invariant grid construction     ... off
Angular grids for H and He will be reduced by one unit

Total number of grid points                  ...     8216
Total number of batches                      ...       65
Average number of points per batch           ...      126
Average number of grid points per atom       ...     4108
UseSFitting                                  ... on

GRIDX 3
-------
General Integration Accuracy     IntAcc      ... 4.338
Radial Grid Type                 RadialGrid  ... OptM3 with GC (2021)
Angular Grid (max. ang.)         AngularGrid ... 3 (Lebedev-194)
Angular grid pruning method      GridPruning ... 4 (adaptive)
Weight generation scheme         WeightScheme... mBecke (2022)
Basis function cutoff            BFCut       ... 1.0000e-10
Integration weight cutoff        WCut        ... 1.0000e-14
Partially contracted basis set               ... on
Rotationally invariant grid construction     ... off
Angular grids for H and He will be reduced by one unit

Total number of grid points                  ...    11266
Total number of batches                      ...       89
Average number of points per batch           ...      126
Average number of grid points per atom       ...     5633
UseSFitting                                  ... on
Initializing property integral containers    ... done (  0.0 sec)

SHARK setup successfully completed in   0.3 seconds

Maximum memory used throughout the entire STARTUP-calculation: 15.1 MB
-------------------------------------------------------------------------------
                                 ORCA GUESS
                   Start orbitals & Density for SCF / CASSCF
-------------------------------------------------------------------------------

------------
SCF SETTINGS
------------
Hamiltonian:
 Density Functional     Method          .... DFT(GTOs)
 Exchange Functional    Exchange        .... B88
   X-Alpha parameter    XAlpha          ....  0.666667
   Becke's b parameter  XBeta           ....  0.004200
 Correlation Functional Correlation     .... LYP
 LDA part of GGA corr.  LDAOpt          .... VWN-5
 Gradients option       PostSCFGGA      .... off
 Hybrid DFT is turned on
   Fraction HF Exchange ScalHFX         ....  0.200000
   Scaling of DF-GGA-X  ScalDFX         ....  0.720000
   Scaling of DF-GGA-C  ScalDFC         ....  0.810000
   Scaling of DF-LDA-C  ScalLDAC        ....  1.000000
   Perturbative correction              ....  0.000000
   NL short-range parameter             ....  4.800000
 RI-approximation to the Coulomb term is turned on
   Number of AuxJ basis functions       .... 109
   RIJ-COSX (HFX calculated with COS-X)).... on


General Settings:
 Integral files         IntName         .... ICl_TDDFT_g
 Hartree-Fock type      HFTyp           .... RHF
 Total Charge           Charge          ....    0
 Multiplicity           Mult            ....    1
 Number of Electrons    NEL             ....   42
 Basis Dimension        Dim             ....   87
 Nuclear Repulsion      ENuc            ....     95.8613924322 Eh

Convergence Acceleration:
 AO-DIIS                CNVDIIS         .... on
   Start iteration      DIISMaxIt       ....    12
   Startup error        DIISStart       ....  0.200000
   # of expansion vecs  DIISMaxEq       ....     5
   Bias factor          DIISBfac        ....   1.050
   Max. coefficient     DIISMaxC        ....  10.000
 MO-DIIS                CNVKDIIS        .... off
 Trust-Rad. Augm. Hess. CNVTRAH         .... auto
   Auto Start mean grad. ratio tolernc. ....  1.125000
   Auto Start start iteration           ....    50
   Auto Start num. interpolation iter.  ....    10
   Max. Number of Micro iterations      ....    24
   Max. Number of Macro iterations      .... Maxiter - #DIIS iter
   Number of Davidson start vectors     ....     2
   Converg. threshold    (grad. norm)   ....   5.000e-05
   Grad. Scal. Fac. for Micro threshold ....   0.100
   Minimum threshold for Micro iter.    ....   1.000e-02
   NR start threshold (gradient norm)   ....   1.000e-04
   Initial trust radius                 ....   0.400
   Minimum AH scaling param. (alpha)    ....   1.000
   Maximum AH scaling param. (alpha)    .... 1000.000
   Quad. conv. algorithm                .... NR
   White noise on init. David. guess    .... on
   Maximum white noise                  ....   0.010
   Pseudo random numbers                .... off
   Inactive MOs                         .... canonical
   Orbital update algorithm             .... Taylor
   Preconditioner                       .... Diag
   Full preconditioner red. dimension   ....   250
 SOSCF                  CNVSOSCF        .... on
   Start iteration      SOSCFMaxIt      ....   150
   Startup grad/error   SOSCFStart      ....  0.003300
   Hessian update       SOSCFHessUp     .... L-BFGS
 Level Shifting         CNVShift        .... on
   Level shift para.    LevelShift      ....    0.2500
   Turn off err/grad.   ShiftErr        ....    0.0010
 Zerner damping         CNVZerner       .... off
 Static damping         CNVDamp         .... on
   Fraction old density DampFac         ....    0.7000
   Max. Damping (<1)    DampMax         ....    0.9800
   Min. Damping (>=0)   DampMin         ....    0.0000
   Turn off err/grad.   DampErr         ....    0.1000

SCF Procedure:
 Maximum # iterations   MaxIter         ....   125
 SCF integral mode      SCFMode         .... Direct
   Integral package                     .... SHARK and LIBINT hybrid scheme
 Reset frequency        DirectResetFreq ....    20
 Integral Threshold     Thresh          ....  1.000e-10 Eh
 Primitive CutOff       TCut            ....  1.000e-11 Eh

Convergence Tolerance:
 Convergence Check Mode ConvCheckMode   .... Total+1el-Energy
 Convergence forced     ConvForced      .... 1
 Energy Change          TolE            ....  1.000e-06 Eh
 1-El. energy change                    ....  1.000e-03 Eh
 Orbital Gradient       TolG            ....  5.000e-05
 Orbital Rotation angle TolX            ....  5.000e-05
 DIIS Error             TolErr          ....  1.000e-06

------------------------------
INITIAL GUESS: MODEL POTENTIAL
------------------------------
Loading Hartree-Fock densities                     ... done
Atomic calculation to generate a density for atom 1 (I  with ECP)
  Multiplicity assumed   :    2
  Atomic configuration   : 1s2 2s2 2p6 3s2 3p6 4s2 3d10 4p6 5s2 4d10 5p5 
  Number of open shells  : 1
  Command: ./orca ICl_TDDFT_g_atom53.inp "-" > ICl_TDDFT_g_atom53.out
Returned from the atomic calculation with res=0
Calculating cut-offs                               ... done
Initializing the effective Hamiltonian             ... done
Setting up the integral package (SHARK)            ... done
Starting the Coulomb interaction                   ... done (   0.0 sec)
Making the grid                                    ... done (   0.0 sec)
Mapping shells                                     ... done
Starting the XC term evaluation                    ... done (   0.0 sec)
  promolecular density results
     # of electrons  =     70.000379146
     EX              =   -201.419534381
     EC              =     -3.402879079
     EX+EC           =   -204.822413459
Transforming the Hamiltonian                       ... done (   0.0 sec)
Diagonalizing the Hamiltonian                      ... done (   0.0 sec)
Back transforming the eigenvectors                 ... done (   0.0 sec)
Now organizing SCF variables                       ... done
                      ------------------
                      INITIAL GUESS DONE (   1.1 sec)
                      ------------------
             **** ENERGY FILE WAS UPDATED (ICl_TDDFT_g.en.tmp) ****
Finished Guess after   1.1 sec
Maximum memory used throughout the entire GUESS-calculation: 9.4 MB

-------------------------------------------------------------------------------------------
                                      ORCA LEAN-SCF
                              memory conserving SCF solver
-------------------------------------------------------------------------------------------

----------------------------------------D-I-I-S--------------------------------------------
Iteration    Energy (Eh)           Delta-E    RMSDP     MaxDP     DIISErr   Damp  Time(sec)
-------------------------------------------------------------------------------------------
               ***  Starting incremental Fock matrix formation  ***
    1    -757.8171914745496451     0.00e+00  2.60e-03  7.52e-02  5.90e-01  0.700   0.4
    2    -757.8355054211298238    -1.83e-02  1.66e-03  4.56e-02  4.00e-01  0.700   0.4
    3    -757.8461862621248883    -1.07e-02  9.21e-04  2.45e-02  2.72e-01  0.700   0.4
                               ***Turning on AO-DIIS***
    4    -757.8529927963284081    -6.81e-03  4.64e-04  1.72e-02  1.85e-01  0.700   0.4
    5    -757.8575392824402570    -4.55e-03  3.16e-04  1.08e-02  1.32e-01  0.700   0.4
    6    -757.8607735330017476    -3.23e-03  2.46e-04  6.55e-03  9.33e-02  0.700   0.4
    7    -757.8630779977531802    -2.30e-03  6.35e-04  1.51e-02  6.54e-02  0.000   0.4
                              *** Initializing SOSCF ***
---------------------------------------S-O-S-C-F--------------------------------------
Iteration    Energy (Eh)           Delta-E    RMSDP     MaxDP     MaxGrad    Time(sec)
--------------------------------------------------------------------------------------
    8    -757.8683767601930867    -5.30e-03  1.55e-04  4.46e-03  2.10e-03     0.4
               *** Restarting incremental Fock matrix formation ***
    9    -757.8683850927469621    -8.33e-06  1.41e-04  3.24e-03  7.94e-04     0.4
   10    -757.8683763408729419     8.75e-06  8.93e-05  1.62e-03  1.57e-03     0.4
   11    -757.8683899679527940    -1.36e-05  1.30e-05  3.22e-04  7.78e-05     0.4
   12    -757.8683899848793999    -1.69e-08  5.82e-06  1.55e-04  3.82e-05     0.4
                 **** Energy Check signals convergence ****

               *****************************************************
               *                     SUCCESS                       *
               *           SCF CONVERGED AFTER  12 CYCLES          *
               *****************************************************

Recomputing exchange energy using gridx3       ... done (    0.489 sec)
Old exchange energy                            :     -9.738899039 Eh
New exchange energy                            :     -9.738916595 Eh
Exchange energy change after final integration :     -0.000017556 Eh
Total energy after final integration           :   -757.868407541 Eh
             **** ENERGY FILE WAS UPDATED (ICl_TDDFT_g.en.tmp) ****

----------------
TOTAL SCF ENERGY
----------------

Total Energy       :       -757.86840754117111 Eh          -20622.64780 eV

Components:
Nuclear Repulsion  :         95.86139243221979 Eh            2608.52110 eV
Electronic Energy  :       -853.72978241709916 Eh          -23231.16843 eV
One Electron Energy:      -1344.09173226966436 Eh          -36574.59545 eV
Two Electron Energy:        490.36194985256526 Eh           13343.42702 eV

Virial components:
Potential Energy   :      -1330.98284554603833 Eh          -36217.88451 eV
Kinetic Energy     :        573.11443800486734 Eh           15595.23670 eV
Virial Ratio       :          2.32236837407110

DFT components:
N(Alpha)           :       20.999996377296 electrons
N(Beta)            :       20.999996377296 electrons
N(Total)           :       41.999992754591 electrons
E(X)               :      -38.699768584672 Eh       
E(C)               :       -1.976658187526 Eh       
E(XC)              :      -40.676426772198 Eh       

---------------
SCF CONVERGENCE
---------------

  Last Energy change         ...    1.6927e-08  Tolerance :   1.0000e-06
  Last MAX-Density change    ...    1.5519e-04  Tolerance :   1.0000e-05
  Last RMS-Density change    ...    5.8244e-06  Tolerance :   1.0000e-06
  Last DIIS Error            ...    2.1048e-03  Tolerance :   1.0000e-06
  Last Orbital Gradient      ...    3.8181e-05  Tolerance :   5.0000e-05
  Last Orbital Rotation      ...    2.9899e-05  Tolerance :   5.0000e-05


----------------
ORBITAL ENERGIES
----------------

  NO   OCC          E(Eh)            E(eV) 
   0   2.0000    -101.546633     -2763.2244 
   1   2.0000      -9.477284      -257.8900 
   2   2.0000      -7.240289      -197.0183 
   3   2.0000      -7.229502      -196.7248 
   4   2.0000      -7.229502      -196.7248 
   5   2.0000      -6.886445      -187.3897 
   6   2.0000      -4.917037      -133.7994 
   7   2.0000      -4.895797      -133.2214 
   8   2.0000      -4.895797      -133.2214 
   9   2.0000      -1.963064       -53.4177 
  10   2.0000      -1.957198       -53.2581 
  11   2.0000      -1.957198       -53.2581 
  12   2.0000      -1.939562       -52.7782 
  13   2.0000      -1.939531       -52.7773 
  14   2.0000      -0.849428       -23.1141 
  15   2.0000      -0.698397       -19.0043 
  16   2.0000      -0.418502       -11.3880 
  17   2.0000      -0.362722        -9.8702 
  18   2.0000      -0.362722        -9.8702 
  19   2.0000      -0.275754        -7.5037 
  20   2.0000      -0.275754        -7.5037 
  21   0.0000      -0.137453        -3.7403 
  22   0.0000       0.130947         3.5633 
  23   0.0000       0.155063         4.2195 
  24   0.0000       0.155063         4.2195 
  25   0.0000       0.193216         5.2577 
  26   0.0000       0.193216         5.2577 
  27   0.0000       0.197898         5.3851 
  28   0.0000       0.197911         5.3854 
  29   0.0000       0.202880         5.5207 
  30   0.0000       0.299429         8.1479 
  31   0.0000       0.351232         9.5575 
*Only the first 10 virtual orbitals were printed.

                    ********************************
                    * MULLIKEN POPULATION ANALYSIS *
                    ********************************

-----------------------
MULLIKEN ATOMIC CHARGES
-----------------------
   0 Cl:   -0.187607
   1 I :    0.187607
Sum of atomic charges:    0.0000000

--------------------------------
MULLIKEN REDUCED ORBITAL CHARGES
--------------------------------
  0 Cls       :     5.962763  s :     5.962763
      pz      :     3.963552  p :    11.171708
      px      :     3.244605
      py      :     3.963552
      dz2     :     0.005935  d :     0.049822
      dxz     :     0.013041
      dyz     :    -0.000000
      dx2y2   :     0.017805
      dxy     :     0.013041
      f0      :     0.000289  f :     0.003314
      f+1     :     0.000666
      f-1     :     0.000048
      f+2     :     0.000481
      f-2     :     0.000000
      f+3     :     0.001109
      f-3     :     0.000721

  1 I s       :     3.964392  s :     3.964392
      pz      :     3.990686  p :    10.751025
      px      :     2.769652
      py      :     3.990686
      dz2     :     2.006226  d :    10.079622
      dxz     :     2.027356
      dyz     :     1.999993
      dx2y2   :     2.018691
      dxy     :     2.027356
      f0      :     0.001723  f :     0.017354
      f+1     :     0.003060
      f-1     :     0.000287
      f+2     :     0.002872
      f-2     :     0.000007
      f+3     :     0.005096
      f-3     :     0.004308



                     *******************************
                     * LOEWDIN POPULATION ANALYSIS *
                     *******************************

----------------------
LOEWDIN ATOMIC CHARGES
----------------------
   0 Cl:   -0.068118
   1 I :    0.068118

-------------------------------
LOEWDIN REDUCED ORBITAL CHARGES
-------------------------------
  0 Cls       :     5.809985  s :     5.809985
      pz      :     3.941754  p :    11.169000
      px      :     3.285493
      py      :     3.941754
      dz2     :     0.010458  d :     0.082837
      dxz     :     0.020503
      dyz     :     0.000000
      dx2y2   :     0.031372
      dxy     :     0.020503
      f0      :     0.000546  f :     0.006296
      f+1     :     0.001268
      f-1     :     0.000091
      f+2     :     0.000910
      f-2     :     0.000000
      f+3     :     0.002114
      f-3     :     0.001366

  1 I s       :     3.880957  s :     3.880957
      pz      :     3.976920  p :    10.825021
      px      :     2.871182
      py      :     3.976920
      dz2     :     2.022660  d :    10.194557
      dxz     :     2.051955
      dyz     :     1.999993
      dx2y2   :     2.067994
      dxy     :     2.051955
      f0      :     0.002779  f :     0.031347
      f+1     :     0.006195
      f-1     :     0.000463
      f+2     :     0.004632
      f-2     :     0.000007
      f+3     :     0.010321
      f-3     :     0.006949



                      *****************************
                      * MAYER POPULATION ANALYSIS *
                      *****************************

  NA   - Mulliken gross atomic population
  ZA   - Total nuclear charge
  QA   - Mulliken gross atomic charge
  VA   - Mayer's total valence
  BVA  - Mayer's bonded valence
  FA   - Mayer's free valence

  ATOM       NA         ZA         QA         VA         BVA        FA
  0 Cl    17.1876    17.0000    -0.1876     1.0725     1.0725     0.0000
  1 I     24.8124    25.0000     0.1876     1.0725     1.0725     0.0000

  Mayer bond orders larger than 0.100000
B(  0-Cl,  1-I ) :   1.0725 

-------
TIMINGS
-------

Total SCF time: 0 days 0 hours 0 min 5 sec 

Total time                  ....       5.247 sec
Sum of individual times     ....       5.240 sec  ( 99.9%)

SCF preparation             ....       0.026 sec  (  0.5%)
Fock matrix formation       ....       5.185 sec  ( 98.8%)
  Startup                   ....       0.002 sec  (  0.0% of F)
  Split-RI-J                ....       0.127 sec  (  2.5% of F)
  Chain of spheres X        ....       4.472 sec  ( 86.2% of F)
  XC integration            ....       0.574 sec  ( 11.1% of F)
    Basis function eval.    ....       0.223 sec  ( 38.9% of XC)
    Density eval.           ....       0.083 sec  ( 14.4% of XC)
    XC-Functional eval.     ....       0.037 sec  (  6.5% of XC)
    XC-Potential eval.      ....       0.183 sec  ( 31.8% of XC)
Diagonalization             ....       0.000 sec  (  0.0%)
Density matrix formation    ....       0.004 sec  (  0.1%)
Total Energy calculation    ....       0.004 sec  (  0.1%)
Population analysis         ....       0.003 sec  (  0.0%)
Orbital Transformation      ....       0.002 sec  (  0.0%)
Orbital Orthonormalization  ....       0.000 sec  (  0.0%)
DIIS solution               ....       0.012 sec  (  0.2%)
SOSCF solution              ....       0.005 sec  (  0.1%)
Finished LeanSCF after   5.3 sec

Maximum memory used throughout the entire LEANSCF-calculation: 9.3 MB

------------------------------------------------------------------------------
                         ORCA PROPERTY INTEGRAL CALCULATIONS
------------------------------------------------------------------------------

GBWName                                   ... ICl_TDDFT_g.gbw
Number of atoms                           ...      2
Number of basis functions                 ...     87
Max core memory                           ...   1024 MB

Dipole integrals                          ... YES
Quadrupole integrals                      ...  NO
Linear momentum integrals                 ... YES
Angular momentum integrals                ... YES
Higher moments length integrals           ...  NO
Higher moments velocity integrals         ...  NO
Kinetic energy integrals                  ...  NO
GIAO right hand sides                     ...  NO
GIAO dipole derivative integrals          ...  NO
SOC integrals                             ...  NO
EPR diamagnetic integrals (GIAO)          ...  NO
EPR gauge integrals                       ...  NO
Field gradient integrals                  ...  NO (   0 nuclei)
Spin-dipole/Fermi contact integrals       ...  NO (   0 nuclei)
Contact density integrals                 ...  NO (   0 nuclei)
Nucleus-orbit integrals                   ...  NO (   0 nuclei)
Geometric perturbations                   ...  NO (   2 nuclei)

Choice of electric origin   ... Center of mass
Position of electric origin ... ( -6.5524,  1.5466,  0.0000) 
Choice of magnetic origin   ... GIAO
Position of magnetic origin ... (  0.0000,  0.0000,  0.0000) 

Calculating integrals                     ... Electric Dipole (Length)     done (  0.0 sec)
Calculating integrals                     ... Linear Momentum              done (  0.0 sec)
Calculating integrals                     ... Angular Momentum  (ElOri)    done (  0.0 sec)

Property integrals calculated in   0.0 sec

Maximum memory used throughout the entire PROPINT-calculation: 9.6 MB
------------------------------------------------------------------------------
                        ORCA TD-DFT/TDA CALCULATION
------------------------------------------------------------------------------

Input orbitals are from        ... ICl_TDDFT_g.gbw
CI-vector output               ... ICl_TDDFT_g.cis
Solver                         ... FN-2001
Tamm-Dancoff approximation     ... operative
CIS-Integral strategy          ... AO-integrals
Integral handling              ... AO integral Direct
Max. core memory used          ... 512 MB
Reference state                ... RHF
Generation of triplets         ... off
Follow IRoot                   ... off
Number of operators            ... 1
Orbital ranges used for CIS calculation:
 Operator 0:  Orbitals   9... 20  to  21... 86
XAS localization array:
 Operator 0:  Orbitals  -1... -1

-------------------
XC-INTEGRATION GRID
-------------------

General Integration Accuracy     IntAcc      ... 3.467
Radial Grid Type                 RadialGrid  ... OptM3 with GC (2021)
Angular Grid (max. ang.)         AngularGrid ... 1 (Lebedev-50)
Angular grid pruning method      GridPruning ... 4 (adaptive)
Weight generation scheme         WeightScheme... mBecke (2022)
Basis function cutoff            BFCut       ... 1.0000e-10
Integration weight cutoff        WCut        ... 1.0000e-14
Partially contracted basis set               ... off
Rotationally invariant grid construction     ... off
Angular grids for H and He will be reduced by one unit

Total number of grid points                  ...     7045
Total number of batches                      ...      111
Average number of points per batch           ...       63
Average number of grid points per atom       ...     3522

---------------------
COSX-INTEGRATION GRID
---------------------

General Integration Accuracy     IntAcc      ... 3.067
Radial Grid Type                 RadialGrid  ... OptM3 with GC (2021)
Angular Grid (max. ang.)         AngularGrid ... 1 (Lebedev-50)
Angular grid pruning method      GridPruning ... 4 (adaptive)
Weight generation scheme         WeightScheme... mBecke (2022)
Basis function cutoff            BFCut       ... 1.0000e-10
Integration weight cutoff        WCut        ... 1.0000e-14
Partially contracted basis set               ... on
Rotationally invariant grid construction     ... off
Angular grids for H and He will be reduced by one unit

Total number of grid points                  ...     5819
Total number of batches                      ...       46
Average number of points per batch           ...      126
Average number of grid points per atom       ...     2910

---------------
TD-DFT XC SETUP
---------------

DFT calculation                         ... on
Name of the grid file                   ... ICl_TDDFT_g.grid_cis.tmp
RI-approximation                        ... on
Aux-basis dimension                     ... 0
Exchange functional (TD-DFT)            ... B88
   X-Alpha parameter    XAlpha (TD-DFT) ...  0.666667
   Becke's b parameter  XBeta (TD-DFT)  ...  0.004200
Correlation functional (TD-DFT)         ... LYP
 LDA part of GGA corr.  LDAOpt (TD-DFT) ... VWN-5
Hybrid DFT                              ... on
   Exchange mixing (TD-DFT)             ...  0.200
   GGA exch. scaling (TD-DFT)           ...  0.720
   GGA corr. scaling (TD-DFT)           ...  0.810

Building densities             ... done
Calculating rho(r) on the grid ... done
Building xc-kernel on the grid ... done
                    *** TD-DFT CALCULATION INITIALIZED ***

------------------------
DAVIDSON-DIAGONALIZATION
------------------------

Dimension of the eigenvalue problem            ...    792
Number of roots to be determined               ...     30
Maximum size of the expansion space            ...    300
Maximum number of iterations                   ...    100
Convergence tolerance for the residual         ...    1.000e-06
Convergence tolerance for the energies         ...    1.000e-06
Orthogonality tolerance                        ...    1.000e-14
Level Shift                                    ...    0.000e+00
Constructing the preconditioner                ... o.k.
Building the initial guess                     ... o.k.
Number of trial vectors determined             ...    300


                       ****Iteration    0****
   Time for iteration     :  TOTAL=3.6 TRAFO=0.0 RIJ=0.1 COSX=2.2 XC=1.3
   Size of expansion space: 90
   Lowest Energy          :     0.098678742502
   Maximum Energy change  :     0.507808510350 (vector 29)
   Maximum residual norm  :     0.007388943355

                       ****Iteration    1****
   Time for iteration     :  TOTAL=1.3 TRAFO=0.0 RIJ=0.0 COSX=0.8 XC=0.4
   Size of expansion space: 120
   Lowest Energy          :     0.096950249482
   Maximum Energy change  :     0.004033728401 (vector 24)
   Maximum residual norm  :     0.000077542826

                       ****Iteration    2****
   Time for iteration     :  TOTAL=1.3 TRAFO=0.0 RIJ=0.1 COSX=0.8 XC=0.4
   Size of expansion space: 150
   Lowest Energy          :     0.096948726917
   Maximum Energy change  :     0.000031037751 (vector 10)
   Maximum residual norm  :     0.000000062599

      *** CONVERGENCE OF RESIDUAL NORM REACHED ***

Storing the converged CI vectors               ... ICl_TDDFT_g.cis1

                 *** DAVIDSON DONE ***

Total time for solving the CIS problem:     7.162sec

------------------------------------
TD-DFT/TDA EXCITED STATES (SINGLETS)
------------------------------------

the weight of the individual excitations are printed if larger than 1.0e-02

STATE  1:  E=   0.096949 au      2.638 eV    21277.8 cm**-1 <S**2> =   0.000000 Mult 1
    19a ->  21a  :     0.070706 (c= -0.26590655)
    20a ->  21a  :     0.924767 (c=  0.96164809)

STATE  2:  E=   0.096949 au      2.638 eV    21277.8 cm**-1 <S**2> =   0.000000 Mult 1
    19a ->  21a  :     0.924767 (c=  0.96164809)
    20a ->  21a  :     0.070706 (c=  0.26590655)

STATE  3:  E=   0.179338 au      4.880 eV    39360.1 cm**-1 <S**2> =   0.000000 Mult 1
    17a ->  21a  :     0.047381 (c=  0.21767238)
    18a ->  21a  :     0.948527 (c= -0.97392346)

STATE  4:  E=   0.179338 au      4.880 eV    39360.1 cm**-1 <S**2> =   0.000000 Mult 1
    17a ->  21a  :     0.948527 (c=  0.97392346)
    18a ->  21a  :     0.047381 (c=  0.21767238)

STATE  5:  E=   0.307214 au      8.360 eV    67425.6 cm**-1 <S**2> =   0.000000 Mult 1
    16a ->  21a  :     0.801762 (c=  0.89541171)
    19a ->  25a  :     0.084677 (c= -0.29099395)
    20a ->  26a  :     0.084677 (c= -0.29099395)

STATE  6:  E=   0.361916 au      9.848 eV    79431.5 cm**-1 <S**2> =   0.000000 Mult 1
    19a ->  22a  :     0.093527 (c= -0.30582205)
    20a ->  22a  :     0.900208 (c=  0.94879297)

STATE  7:  E=   0.361916 au      9.848 eV    79431.5 cm**-1 <S**2> =   0.000000 Mult 1
    19a ->  22a  :     0.900208 (c= -0.94879297)
    20a ->  22a  :     0.093527 (c= -0.30582205)

STATE  8:  E=   0.383776 au     10.443 eV    84229.1 cm**-1 <S**2> =   0.000000 Mult 1
    19a ->  23a  :     0.215865 (c= -0.46461284)
    19a ->  24a  :     0.278282 (c=  0.52752437)
    20a ->  23a  :     0.278282 (c=  0.52752458)
    20a ->  24a  :     0.215865 (c=  0.46461285)

STATE  9:  E=   0.383810 au     10.444 eV    84236.6 cm**-1 <S**2> =   0.000000 Mult 1
    19a ->  23a  :     0.278199 (c= -0.52744568)
    19a ->  24a  :     0.215801 (c= -0.46454340)
    20a ->  23a  :     0.215801 (c= -0.46454350)
    20a ->  24a  :     0.278199 (c=  0.52744568)

STATE 10:  E=   0.386148 au     10.508 eV    84749.6 cm**-1 <S**2> =   0.000000 Mult 1
    19a ->  24a  :     0.485422 (c=  0.69672212)
    19a ->  26a  :     0.010486 (c=  0.10240144)
    20a ->  23a  :     0.485421 (c= -0.69672189)
    20a ->  25a  :     0.010486 (c= -0.10240142)

STATE 11:  E=   0.416383 au     11.330 eV    91385.6 cm**-1 <S**2> =   0.000000 Mult 1
    15a ->  21a  :     0.017651 (c= -0.13285710)
    17a ->  24a  :     0.014259 (c=  0.11941275)
    18a ->  23a  :     0.014259 (c= -0.11941275)
    19a ->  23a  :     0.460848 (c=  0.67885817)
    20a ->  24a  :     0.460848 (c=  0.67885817)

STATE 12:  E=   0.417879 au     11.371 eV    91713.8 cm**-1 <S**2> =   0.000000 Mult 1
    19a ->  24a  :     0.010475 (c=  0.10234612)
    19a ->  26a  :     0.482563 (c= -0.69466735)
    20a ->  23a  :     0.010475 (c= -0.10234617)
    20a ->  25a  :     0.482563 (c=  0.69466790)

STATE 13:  E=   0.418527 au     11.389 eV    91856.0 cm**-1 <S**2> =   0.000000 Mult 1
    19a ->  25a  :     0.237589 (c=  0.48743150)
    19a ->  26a  :     0.257558 (c= -0.50750169)
    20a ->  25a  :     0.257557 (c= -0.50750103)
    20a ->  26a  :     0.237589 (c= -0.48743142)

STATE 14:  E=   0.418581 au     11.390 eV    91867.9 cm**-1 <S**2> =   0.000000 Mult 1
    19a ->  25a  :     0.257482 (c= -0.50742707)
    19a ->  26a  :     0.237520 (c= -0.48736016)
    20a ->  25a  :     0.237520 (c= -0.48736006)
    20a ->  26a  :     0.257482 (c=  0.50742708)

STATE 15:  E=   0.424192 au     11.543 eV    93099.4 cm**-1 <S**2> =   0.000000 Mult 1
    19a ->  27a  :     0.369854 (c= -0.60815660)
    19a ->  28a  :     0.128355 (c=  0.35826671)
    20a ->  27a  :     0.128144 (c=  0.35797171)
    20a ->  28a  :     0.370464 (c=  0.60865783)

STATE 16:  E=   0.424192 au     11.543 eV    93099.4 cm**-1 <S**2> =   0.000000 Mult 1
    19a ->  27a  :     0.128144 (c= -0.35797169)
    19a ->  28a  :     0.370464 (c= -0.60865782)
    20a ->  27a  :     0.369854 (c= -0.60815661)
    20a ->  28a  :     0.128355 (c=  0.35826673)

STATE 17:  E=   0.430439 au     11.713 eV    94470.5 cm**-1 <S**2> =   0.000000 Mult 1
    19a ->  27a  :     0.014086 (c= -0.11868444)
    19a ->  28a  :     0.082831 (c= -0.28780452)
    19a ->  29a  :     0.054263 (c= -0.23294418)
    20a ->  27a  :     0.085071 (c=  0.29166988)
    20a ->  28a  :     0.013715 (c= -0.11711163)
    20a ->  29a  :     0.734362 (c=  0.85694943)

STATE 18:  E=   0.430439 au     11.713 eV    94470.5 cm**-1 <S**2> =   0.000000 Mult 1
    19a ->  27a  :     0.085071 (c= -0.29166988)
    19a ->  28a  :     0.013715 (c=  0.11711162)
    19a ->  29a  :     0.734362 (c=  0.85694944)
    20a ->  27a  :     0.014086 (c= -0.11868443)
    20a ->  28a  :     0.082831 (c= -0.28780449)
    20a ->  29a  :     0.054263 (c=  0.23294419)

STATE 19:  E=   0.453826 au     12.349 eV    99603.3 cm**-1 <S**2> =   0.000000 Mult 1
    17a ->  22a  :     0.018110 (c=  0.13457203)
    18a ->  22a  :     0.928229 (c= -0.96344646)

STATE 20:  E=   0.453826 au     12.349 eV    99603.3 cm**-1 <S**2> =   0.000000 Mult 1
    17a ->  22a  :     0.928229 (c=  0.96344646)
    18a ->  22a  :     0.018110 (c=  0.13457203)

STATE 21:  E=   0.477986 au     13.007 eV   104905.8 cm**-1 <S**2> =   0.000000 Mult 1
    17a ->  23a  :     0.350032 (c= -0.59163494)
    17a ->  24a  :     0.137489 (c=  0.37079482)
    18a ->  23a  :     0.137489 (c=  0.37079481)
    18a ->  24a  :     0.350032 (c=  0.59163473)

STATE 22:  E=   0.477998 au     13.007 eV   104908.5 cm**-1 <S**2> =   0.000000 Mult 1
    17a ->  23a  :     0.137501 (c=  0.37081180)
    17a ->  24a  :     0.350063 (c=  0.59166147)
    18a ->  23a  :     0.350063 (c=  0.59166162)
    18a ->  24a  :     0.137501 (c= -0.37081131)

STATE 23:  E=   0.478058 au     13.009 eV   104921.5 cm**-1 <S**2> =   0.000000 Mult 1
    17a ->  23a  :     0.451442 (c= -0.67189437)
    17a ->  24a  :     0.022294 (c=  0.14931290)
    17a ->  25a  :     0.022458 (c= -0.14985845)
    18a ->  23a  :     0.022294 (c= -0.14931257)
    18a ->  24a  :     0.451443 (c= -0.67189482)
    18a ->  26a  :     0.022458 (c= -0.14985851)

STATE 24:  E=   0.478488 au     13.020 eV   105016.0 cm**-1 <S**2> =   0.000000 Mult 1
    16a ->  26a  :     0.022536 (c=  0.15011965)
    17a ->  22a  :     0.016759 (c= -0.12945659)
    17a ->  27a  :     0.041885 (c= -0.20465893)
    17a ->  28a  :     0.034296 (c=  0.18519163)
    17a ->  29a  :     0.015207 (c=  0.12331756)
    18a ->  27a  :     0.034174 (c= -0.18486078)
    18a ->  28a  :     0.042035 (c= -0.20502523)
    19a ->  27a  :     0.054405 (c=  0.23324937)
    19a ->  28a  :     0.239332 (c=  0.48921580)
    20a ->  27a  :     0.238311 (c= -0.48817139)
    20a ->  28a  :     0.054638 (c=  0.23374838)
    20a ->  29a  :     0.160651 (c=  0.40081319)

STATE 25:  E=   0.478488 au     13.020 eV   105016.0 cm**-1 <S**2> =   0.000000 Mult 1
    16a ->  25a  :     0.022536 (c=  0.15011965)
    17a ->  27a  :     0.034174 (c=  0.18486077)
    17a ->  28a  :     0.042035 (c=  0.20502523)
    18a ->  22a  :     0.016759 (c=  0.12945658)
    18a ->  27a  :     0.041885 (c= -0.20465894)
    18a ->  28a  :     0.034296 (c=  0.18519164)
    18a ->  29a  :     0.015207 (c= -0.12331756)
    19a ->  27a  :     0.238311 (c=  0.48817141)
    19a ->  28a  :     0.054638 (c= -0.23374838)
    19a ->  29a  :     0.160651 (c=  0.40081317)
    20a ->  27a  :     0.054405 (c=  0.23324938)
    20a ->  28a  :     0.239332 (c=  0.48921580)

STATE 26:  E=   0.485858 au     13.221 eV   106633.5 cm**-1 <S**2> =   0.000000 Mult 1
    15a ->  21a  :     0.211298 (c= -0.45967154)
    16a ->  21a  :     0.010085 (c=  0.10042633)
    17a ->  23a  :     0.014734 (c= -0.12138517)
    17a ->  24a  :     0.298360 (c= -0.54622298)
    18a ->  23a  :     0.298359 (c=  0.54622293)
    18a ->  24a  :     0.014734 (c= -0.12138518)
    19a ->  25a  :     0.060410 (c=  0.24578457)
    20a ->  26a  :     0.060410 (c=  0.24578457)

STATE 27:  E=   0.493324 au     13.424 eV   108272.0 cm**-1 <S**2> =   0.000000 Mult 1
    15a ->  21a  :     0.036867 (c= -0.19200793)
    16a ->  21a  :     0.027941 (c=  0.16715422)
    16a ->  22a  :     0.595745 (c=  0.77184496)
    17a ->  24a  :     0.055759 (c=  0.23613415)
    18a ->  23a  :     0.055759 (c= -0.23613413)
    19a ->  25a  :     0.105378 (c=  0.32462013)
    20a ->  26a  :     0.105378 (c=  0.32462012)

STATE 28:  E=   0.505942 au     13.767 eV   111041.5 cm**-1 <S**2> =   0.000000 Mult 1
    17a ->  23a  :     0.022390 (c= -0.14963295)
    17a ->  25a  :     0.460044 (c=  0.67826535)
    17a ->  26a  :     0.014468 (c= -0.12028444)
    18a ->  24a  :     0.022390 (c= -0.14963296)
    18a ->  25a  :     0.014468 (c=  0.12028444)
    18a ->  26a  :     0.460044 (c=  0.67826538)

STATE 29:  E=   0.507678 au     13.815 eV   111422.5 cm**-1 <S**2> =   0.000000 Mult 1
    17a ->  25a  :     0.119302 (c=  0.34540067)
    17a ->  26a  :     0.369566 (c=  0.60791927)
    18a ->  25a  :     0.369566 (c=  0.60791929)
    18a ->  26a  :     0.119302 (c= -0.34540066)

STATE 30:  E=   0.507724 au     13.816 eV   111432.5 cm**-1 <S**2> =   0.000000 Mult 1
    17a ->  25a  :     0.369522 (c=  0.60788316)
    17a ->  26a  :     0.119287 (c= -0.34538013)
    18a ->  25a  :     0.119287 (c= -0.34538013)
    18a ->  26a  :     0.369522 (c= -0.60788313)


-----------------------------
TD-DFT/TDA-EXCITATION SPECTRA
-----------------------------

Center of mass = ( -6.5524,  1.5466,  0.0000)
Generating CIS transition densities           ... done

----------------------------------------------------------------------------------------------------
                     ABSORPTION SPECTRUM VIA TRANSITION ELECTRIC DIPOLE MOMENTS    
----------------------------------------------------------------------------------------------------
     Transition      Energy     Energy  Wavelength fosc(D2)      D2        DX        DY        DZ   
                      (eV)      (cm-1)    (nm)                 (au**2)    (au)      (au)      (au)  
----------------------------------------------------------------------------------------------------
  0-1A  ->  1-1A    2.638109   21277.8   470.0   0.000157405   0.00244   0.00000   0.04927   0.00277
  0-1A  ->  2-1A    2.638109   21277.8   470.0   0.000157405   0.00244  -0.00000  -0.00277   0.04927
  0-1A  ->  3-1A    4.880028   39360.1   254.1   0.001727760   0.01445  -0.00000  -0.04625   0.11096
  0-1A  ->  4-1A    4.880028   39360.1   254.1   0.001727760   0.01445   0.00000   0.11096   0.04625
  0-1A  ->  5-1A    8.359712   67425.6   148.3   0.656962537   3.20768  -1.79100  -0.00000  -0.00000
  0-1A  ->  6-1A    9.848247   79431.5   125.9   0.010390015   0.04306   0.00000   0.20749   0.00293
  0-1A  ->  7-1A    9.848247   79431.5   125.9   0.010390015   0.04306   0.00000   0.00293  -0.20749
  0-1A  ->  8-1A   10.443079   84229.1   118.7   0.000000000   0.00000   0.00000  -0.00000  -0.00000
  0-1A  ->  9-1A   10.444006   84236.6   118.7   0.000000000   0.00000  -0.00000  -0.00000   0.00000
  0-1A  -> 10-1A   10.507609   84749.6   118.0   0.000000000   0.00000  -0.00000   0.00000   0.00000
  0-1A  -> 11-1A   11.330369   91385.6   109.4   0.368118527   1.32613  -1.15158  -0.00000  -0.00000
  0-1A  -> 12-1A   11.371063   91713.8   109.0   0.000000000   0.00000   0.00000   0.00000  -0.00000
  0-1A  -> 13-1A   11.388689   91856.0   108.9   0.000000000   0.00000  -0.00000  -0.00000  -0.00000
  0-1A  -> 14-1A   11.390166   91867.9   108.9   0.000000000   0.00000   0.00000   0.00000  -0.00000
  0-1A  -> 15-1A   11.542855   93099.4   107.4   0.000001678   0.00001  -0.00000   0.00184   0.00159
  0-1A  -> 16-1A   11.542855   93099.4   107.4   0.000001678   0.00001   0.00000  -0.00159   0.00184
  0-1A  -> 17-1A   11.712843   94470.5   105.9   0.025871567   0.09016   0.00000  -0.29971  -0.01816
  0-1A  -> 18-1A   11.712843   94470.5   105.9   0.025871567   0.09016   0.00000   0.01816  -0.29971
  0-1A  -> 19-1A   12.349231   99603.3   100.4   0.010522627   0.03478  -0.00000  -0.08546   0.16576
  0-1A  -> 20-1A   12.349231   99603.3   100.4   0.010522626   0.03478   0.00000   0.16576   0.08546
  0-1A  -> 21-1A   13.006665  104905.8    95.3   0.000000000   0.00000  -0.00000   0.00000   0.00000
  0-1A  -> 22-1A   13.006997  104908.5    95.3   0.000000000   0.00000  -0.00000  -0.00000   0.00000
  0-1A  -> 23-1A   13.008607  104921.5    95.3   0.000000000   0.00000   0.00000   0.00000  -0.00000
  0-1A  -> 24-1A   13.020323  105016.0    95.2   0.325810771   1.02138  -0.00000  -1.00339  -0.12078
  0-1A  -> 25-1A   13.020323  105016.0    95.2   0.325810771   1.02138  -0.00000   0.12078  -1.00339
  0-1A  -> 26-1A   13.220866  106633.5    93.8   0.376614916   1.16273  -1.07830   0.00000   0.00000
  0-1A  -> 27-1A   13.424019  108272.0    92.4   0.637940060   1.93972  -1.39274   0.00000   0.00000
  0-1A  -> 28-1A   13.767389  111041.5    90.1   0.000000000   0.00000   0.00000  -0.00000  -0.00000
  0-1A  -> 29-1A   13.814630  111422.5    89.7   0.000000000   0.00000   0.00000   0.00000  -0.00000
  0-1A  -> 30-1A   13.815868  111432.5    89.7   0.000000000   0.00000  -0.00000   0.00000  -0.00000

----------------------------------------------------------------------------------------------------
                     ABSORPTION SPECTRUM VIA TRANSITION VELOCITY DIPOLE MOMENTS    
----------------------------------------------------------------------------------------------------
     Transition      Energy     Energy  Wavelength fosc(P2)      P2        PX        PY        PZ   
                      (eV)      (cm-1)    (nm)                 (au**2)    (au)      (au)      (au)  
----------------------------------------------------------------------------------------------------
  0-1A  ->  1-1A    2.638109   21277.8   470.0   0.083565401   0.01215   0.00000  -0.11006  -0.00619
  0-1A  ->  2-1A    2.638109   21277.8   470.0   0.083565400   0.01215   0.00000   0.00619  -0.11006
  0-1A  ->  3-1A    4.880028   39360.1   254.1   0.000648955   0.00017  -0.00000  -0.00508   0.01220
  0-1A  ->  4-1A    4.880028   39360.1   254.1   0.000648956   0.00017   0.00000   0.01220   0.00508
  0-1A  ->  5-1A    8.359712   67425.6   148.3   0.124819882   0.05752   0.23983   0.00000   0.00000
  0-1A  ->  6-1A    9.848247   79431.5   125.9   0.012669442   0.00688   0.00000  -0.08292  -0.00117
  0-1A  ->  7-1A    9.848247   79431.5   125.9   0.012669442   0.00688   0.00000  -0.00117   0.08292
  0-1A  ->  8-1A   10.443079   84229.1   118.7   0.000000000   0.00000  -0.00000  -0.00000  -0.00000
  0-1A  ->  9-1A   10.444006   84236.6   118.7   0.000000000   0.00000   0.00000  -0.00000   0.00000
  0-1A  -> 10-1A   10.507609   84749.6   118.0   0.000000000   0.00000   0.00000  -0.00000   0.00000
  0-1A  -> 11-1A   11.330369   91385.6   109.4   0.218676406   0.13658   0.36957   0.00000   0.00000
  0-1A  -> 12-1A   11.371063   91713.8   109.0   0.000000000   0.00000  -0.00000  -0.00000   0.00000
  0-1A  -> 13-1A   11.388689   91856.0   108.9   0.000000000   0.00000   0.00000   0.00000   0.00000
  0-1A  -> 14-1A   11.390166   91867.9   108.9   0.000000000   0.00000  -0.00000  -0.00000   0.00000
  0-1A  -> 15-1A   11.542855   93099.4   107.4   0.000001515   0.00000   0.00000  -0.00074  -0.00064
  0-1A  -> 16-1A   11.542855   93099.4   107.4   0.000001515   0.00000  -0.00000   0.00064  -0.00074
  0-1A  -> 17-1A   11.712843   94470.5   105.9   0.045106771   0.02912  -0.00000   0.17034   0.01032
  0-1A  -> 18-1A   11.712843   94470.5   105.9   0.045106771   0.02912  -0.00000  -0.01032   0.17034
  0-1A  -> 19-1A   12.349231   99603.3   100.4   0.008521998   0.00580  -0.00000   0.03490  -0.06770
  0-1A  -> 20-1A   12.349231   99603.3   100.4   0.008521997   0.00580  -0.00000  -0.06770  -0.03490
  0-1A  -> 21-1A   13.006665  104905.8    95.3   0.000000000   0.00000   0.00000  -0.00000  -0.00000
  0-1A  -> 22-1A   13.006997  104908.5    95.3   0.000000000   0.00000  -0.00000   0.00000  -0.00000
  0-1A  -> 23-1A   13.008607  104921.5    95.3   0.000000000   0.00000  -0.00000  -0.00000   0.00000
  0-1A  -> 24-1A   13.020323  105016.0    95.2   0.091844065   0.06592   0.00000   0.25491   0.03068
  0-1A  -> 25-1A   13.020323  105016.0    95.2   0.091844064   0.06592   0.00000  -0.03068   0.25491
  0-1A  -> 26-1A   13.220866  106633.5    93.8   0.169072394   0.12322   0.35102  -0.00000  -0.00000
  0-1A  -> 27-1A   13.424019  108272.0    92.4   0.269087106   0.19912   0.44623  -0.00000  -0.00000
  0-1A  -> 28-1A   13.767389  111041.5    90.1   0.000000000   0.00000  -0.00000  -0.00000   0.00000
  0-1A  -> 29-1A   13.814630  111422.5    89.7   0.000000000   0.00000  -0.00000   0.00000   0.00000
  0-1A  -> 30-1A   13.815868  111432.5    89.7   0.000000000   0.00000   0.00000  -0.00000  -0.00000

------------------------------------------------------------------------------------------
                     CD SPECTRUM VIA TRANSITION ELECTRIC DIPOLE MOMENTS    
------------------------------------------------------------------------------------------
     Transition      Energy     Energy  Wavelength    R        MX        MY        MZ   
                      (eV)      (cm-1)    (nm)   (1e40*cgs)   (au)      (au)      (au)  
------------------------------------------------------------------------------------------
  0-1A  ->  1-1A    2.638109   21277.8   470.0    0.00000  -0.00000  -0.01565   0.27843
  0-1A  ->  2-1A    2.638109   21277.8   470.0   -0.00000   0.00000  -0.27843  -0.01565
  0-1A  ->  3-1A    4.880028   39360.1   254.1   -0.00000  -0.00000   0.23777   0.09911
  0-1A  ->  4-1A    4.880028   39360.1   254.1    0.00000  -0.00000   0.09911  -0.23777
  0-1A  ->  5-1A    8.359712   67425.6   148.3    0.00000   0.00000  -0.00000   0.00000
  0-1A  ->  6-1A    9.848247   79431.5   125.9    0.00000  -0.00000  -0.00362   0.25657
  0-1A  ->  7-1A    9.848247   79431.5   125.9   -0.00000   0.00000   0.25657   0.00362
  0-1A  ->  8-1A   10.443079   84229.1   118.7   -0.00000   0.00000  -0.00000  -0.00000
  0-1A  ->  9-1A   10.444006   84236.6   118.7   -0.00000  -0.00000  -0.00000   0.00000
  0-1A  -> 10-1A   10.507609   84749.6   118.0   -0.00000  -0.00000   0.00000   0.00000
  0-1A  -> 11-1A   11.330369   91385.6   109.4    0.00000   0.00000   0.00000  -0.00000
  0-1A  -> 12-1A   11.371063   91713.8   109.0    0.00000   0.00000  -0.00000  -0.00000
  0-1A  -> 13-1A   11.388689   91856.0   108.9    0.00000  -0.00000   0.00000  -0.00000
  0-1A  -> 14-1A   11.390166   91867.9   108.9   -0.00000  -0.00000   0.00000   0.00000
  0-1A  -> 15-1A   11.542855   93099.4   107.4    0.00000   0.00000   0.00067  -0.00078
  0-1A  -> 16-1A   11.542855   93099.4   107.4   -0.00000   0.00000   0.00078   0.00067
  0-1A  -> 17-1A   11.712843   94470.5   105.9   -0.00000   0.00000  -0.00012   0.00205
  0-1A  -> 18-1A   11.712843   94470.5   105.9    0.00000  -0.00000  -0.00205  -0.00012
  0-1A  -> 19-1A   12.349231   99603.3   100.4    0.00000  -0.00000  -0.35508  -0.18307
  0-1A  -> 20-1A   12.349231   99603.3   100.4   -0.00000  -0.00000  -0.18307   0.35508
  0-1A  -> 21-1A   13.006665  104905.8    95.3    0.00000  -0.00000   0.00000  -0.00000
  0-1A  -> 22-1A   13.006997  104908.5    95.3    0.00000  -0.00000   0.00000   0.00000
  0-1A  -> 23-1A   13.008607  104921.5    95.3    0.00000   0.00000  -0.00000  -0.00000
  0-1A  -> 24-1A   13.020323  105016.0    95.2    0.00000   0.00000  -0.07322   0.60831
  0-1A  -> 25-1A   13.020323  105016.0    95.2   -0.00000  -0.00000  -0.60831  -0.07322
  0-1A  -> 26-1A   13.220866  106633.5    93.8    0.00000   0.00000  -0.00000  -0.00000
  0-1A  -> 27-1A   13.424019  108272.0    92.4   -0.00000  -0.00000   0.00000  -0.00000
  0-1A  -> 28-1A   13.767389  111041.5    90.1    0.00000  -0.00000   0.00000   0.00000
  0-1A  -> 29-1A   13.814630  111422.5    89.7    0.00000  -0.00000  -0.00000   0.00000
  0-1A  -> 30-1A   13.815868  111432.5    89.7    0.00000  -0.00000  -0.00000  -0.00000

------------------------------------------------------------------------------------------
                     CD SPECTRUM VIA TRANSITION VELOCITY DIPOLE MOMENTS    
------------------------------------------------------------------------------------------
     Transition      Energy     Energy  Wavelength    R        MX        MY        MZ   
                      (eV)      (cm-1)    (nm)   (1e40*cgs)   (au)      (au)      (au)  
------------------------------------------------------------------------------------------
  0-1A  ->  1-1A    2.638109   21277.8   470.0    0.00000  -0.00000  -0.01565   0.27843
  0-1A  ->  2-1A    2.638109   21277.8   470.0   -0.00000   0.00000  -0.27843  -0.01565
  0-1A  ->  3-1A    4.880028   39360.1   254.1    0.00000  -0.00000   0.23777   0.09911
  0-1A  ->  4-1A    4.880028   39360.1   254.1   -0.00000  -0.00000   0.09911  -0.23777
  0-1A  ->  5-1A    8.359712   67425.6   148.3    0.00000   0.00000  -0.00000   0.00000
  0-1A  ->  6-1A    9.848247   79431.5   125.9    0.00000  -0.00000  -0.00362   0.25657
  0-1A  ->  7-1A    9.848247   79431.5   125.9   -0.00000   0.00000   0.25657   0.00362
  0-1A  ->  8-1A   10.443079   84229.1   118.7    0.00000   0.00000  -0.00000  -0.00000
  0-1A  ->  9-1A   10.444006   84236.6   118.7    0.00000  -0.00000  -0.00000   0.00000
  0-1A  -> 10-1A   10.507609   84749.6   118.0   -0.00000  -0.00000   0.00000   0.00000
  0-1A  -> 11-1A   11.330369   91385.6   109.4    0.00000   0.00000   0.00000  -0.00000
  0-1A  -> 12-1A   11.371063   91713.8   109.0    0.00000   0.00000  -0.00000  -0.00000
  0-1A  -> 13-1A   11.388689   91856.0   108.9    0.00000  -0.00000   0.00000  -0.00000
  0-1A  -> 14-1A   11.390166   91867.9   108.9    0.00000  -0.00000   0.00000   0.00000
  0-1A  -> 15-1A   11.542855   93099.4   107.4    0.00000   0.00000   0.00067  -0.00078
  0-1A  -> 16-1A   11.542855   93099.4   107.4   -0.00000   0.00000   0.00078   0.00067
  0-1A  -> 17-1A   11.712843   94470.5   105.9   -0.00000   0.00000  -0.00012   0.00205
  0-1A  -> 18-1A   11.712843   94470.5   105.9    0.00000  -0.00000  -0.00205  -0.00012
  0-1A  -> 19-1A   12.349231   99603.3   100.4    0.00000  -0.00000  -0.35508  -0.18307
  0-1A  -> 20-1A   12.349231   99603.3   100.4    0.00000  -0.00000  -0.18307   0.35508
  0-1A  -> 21-1A   13.006665  104905.8    95.3    0.00000  -0.00000   0.00000  -0.00000
  0-1A  -> 22-1A   13.006997  104908.5    95.3    0.00000  -0.00000   0.00000   0.00000
  0-1A  -> 23-1A   13.008607  104921.5    95.3    0.00000   0.00000  -0.00000  -0.00000
  0-1A  -> 24-1A   13.020323  105016.0    95.2   -0.00000   0.00000  -0.07322   0.60831
  0-1A  -> 25-1A   13.020323  105016.0    95.2    0.00000  -0.00000  -0.60831  -0.07322
  0-1A  -> 26-1A   13.220866  106633.5    93.8    0.00000   0.00000  -0.00000  -0.00000
  0-1A  -> 27-1A   13.424019  108272.0    92.4   -0.00000  -0.00000   0.00000  -0.00000
  0-1A  -> 28-1A   13.767389  111041.5    90.1    0.00000  -0.00000   0.00000   0.00000
  0-1A  -> 29-1A   13.814630  111422.5    89.7    0.00000  -0.00000  -0.00000   0.00000
  0-1A  -> 30-1A   13.815868  111432.5    89.7    0.00000  -0.00000  -0.00000  -0.00000

Total run time:        7.249 sec

           *** ORCA-CIS/TD-DFT FINISHED WITHOUT ERROR ***
-----------------------
CIS/TD-DFT TOTAL ENERGY
-----------------------

    E(SCF)  =   -757.868407541 Eh
    DE(CIS) =      0.096948727 Eh (Root  1)
    ----------------------------- ---------
    E(tot)  =   -757.771458814 Eh


Maximum memory used throughout the entire CIS-calculation: 54.4 MB
=> NOW LEAVING ORCA_CIS

-------------------------   --------------------
FINAL SINGLE POINT ENERGY      -757.771458814254
-------------------------   --------------------


------------------------------------------------------------------------------
                              ORCA PROPERTY CALCULATIONS
------------------------------------------------------------------------------

GBWName                                 ... ICl_TDDFT_g.gbw
Number of atoms                         ...      2
Number of basis functions               ...     87
Max core memory                         ...   1024 MB

Electric properties:
Dipole moment                           ... YES
Quadrupole moment                       ...  NO
Static polarizability (Dipole/Dipole)   ...  NO
Static polarizability (Dipole/Quad.)    ...  NO
Static polarizability (Quad./Quad.)     ...  NO
Static polarizability (Velocity)        ...  NO

Atomic electric properties:
Dipole moment                           ...  NO
Quadrupole moment                       ...  NO
Static polarizability                   ...  NO

Choice of electric origin               ... Center of mass
Position of electric origin             ...    -6.552394     1.546646     0.000000

General magnetic properties:
Magnetizability                         ...  NO

EPR properties:
g-Tensor (aka g-matrix)                 ...  NO
Zero-Field splitting spin-orbit         ...  NO
Zero-field splitting spin-spin          ...  NO
Hyperfine couplings                     ...  NO (   0 nuclei)
Quadrupole couplings                    ...  NO (   0 nuclei)
Contact density                         ...  NO (   0 nuclei)

NMR properties:
Chemical shifts                         ...  NO (   0 nuclei)
Spin-rotation constants                 ...  NO (   0 nuclei)
Spin-spin couplings                     ...  NO (   0 nuclei,    0 pairs)

Choice of magnetic origin               ... GIAO
Position of magnetic origin             ...     0.000000     0.000000     0.000000

Properties with geometric perturbations:
SCF Hessian                             ...  NO
IR spectrum                             ...  NO
VCD spectrum                            ...  NO
X-ray spectroscopy properties:
SCF XES/XAS/RIXS spectra                ...  NO


-------------
DIPOLE MOMENT
-------------

Method             : SCF
Type of density    : Electron Density
Multiplicity       :   1
Irrep              :   0
Energy             :  -757.8684075411711092 Eh
Relativity type    : 
Basis              : AO
                                X                 Y                 Z
Electronic contribution:     35.183602881      -0.000000007       0.000000007
Nuclear contribution   :    -34.707384499      -0.000000000       0.000000000
                        -----------------------------------------
Total Dipole Moment    :      0.476218382      -0.000000007       0.000000007
                        -----------------------------------------
Magnitude (a.u.)       :      0.476218382
Magnitude (Debye)      :      1.210450930



--------------------
Rotational spectrum 
--------------------
 
Rotational constants in cm-1:             0.000000             0.110522             0.110522 
Rotational constants in MHz :             0.000000          3313.375476          3313.375476 

Dipole components along the rotational axes: 
x,y,z [a.u.] :     0.476218    -0.000000     0.000000 
x,y,z [Debye]:     1.210451    -0.000000     0.000000 

 

Dipole moment calculation done in   0.0 sec 

Maximum memory used throughout the entire PROP-calculation: 6.4 MB

--------------------------------
SUGGESTED CITATIONS FOR THIS RUN
--------------------------------

Below you find a list of papers that are relevant to this ORCA run
We neither can nor want to force you to cite these papers, but we appreciate if you do
You receive ORCA, which is the product of decades of hard work by many enthusiastic individuals, for free
The only thing we kindly ask in return is that you cite our papers,
We deeply appreciate it, if you show your appreciation for ORCA by not just citing the generic ORCA reference.

Please note that relegating all ORCA citations to the supporting information does *not* help us.
SI sections are not indexed - citations you put there will not count into any citation statistics
But we need these citations in order to attract the funding resources that allow us to do what we are doing

Therefore, if you are a happy ORCA user, please consider citing a few of the papers listed below in the main body of your paper

In addition to the list printed below, the program has created the file ICl_TDDFT_g.bibtex that contains the list in bibtex format
You can import this file easily into all common literature databanks and citation aid programs


List of essential papers. We consider these as the minimum necessary citations

  1. Neese,F.
     Software update: the ORCA program system, version 5.0
     WIRES Comput. Molec. Sci., 2022 12(1)e1606
     doi.org/10.1002/wcms.1606

List of papers to cite with high priority. The work reported in these papers was absolutely
necessary for this run to complete.
Our perspective: the developers of density functionals and basis sets usually get cited in chemistry papers
Good! But without the algorithms to do something with them, the functionals or basis sets would not do anything.
Hence, in our opinion, the algorithm design and method developments papers are equally worthy of getting cited

  1. Neese,F.; Olbrich,G.
     Efficient use of the resolution of the identity approximation in time-dependent density functional calculations with hybrid density functionals
     Chem. Phys. Lett., 2002 362 170-178
     doi.org/10.1016/s0009-2614(02)01053-9
  2. Neese,F.
     An improvement of the resolution of the identity approximation for the formation of the Coulomb matrix
     J. Comp. Chem., 2003 24(14)1740-1747
     doi.org/10.1002/jcc.10318
  3. Neese,F.; Wennmohs,F.; Hansen,A.; Becker,U.
     Efficient, approximate and parallel Hartree-Fock and hybrid DFT calculations. A 'chain-of-spheres' algorithm for the Hartree-Fock exchange
     Chem. Phys., 2009 356(1-3)98-109
     doi.org/10.1016/j.chemphys.2008.10.036
  4. Helmich-Paris,B.; de Souza,B.; Neese,F.; Izsák,R.
     An improved chain of spheres for exchange algorithm
     J. Chem. Phys., 2021 155 104109
     doi.org/doi: 10.1063/5.0058766.
  5. Neese,F.
     The SHARK Integral Generation and Digestion System
     J. Comp. Chem., 2022  1-16
     doi.org/10.1002/jcc.26942

List of suggested additional citations. These are papers that are important in the 'surrounding' of 
of this run, or papers that preceded the highly important papers. If you like your results we are grateful for a citation.

  1. Izsak,R.; Neese,F.
     An overlap fitted chain of spheres exchange method
     J. Chem. Phys., 2011 135 144105
     doi.org/10.1063/1.3646921
  2. Izsak,R.; Hansen,A.; Neese,F.
     The resolution of identity and chain of spheres approximations for the LPNO-CCSD singles Fock term
     Molec. Phys., 2012 110 2413-2417
     doi.org/10.1080/00268976.2012.687466
  3. Neese,F.
     The ORCA program system
     WIRES Comput. Molec. Sci., 2012 2(1)73-78
     doi.org/10.1002/wcms.81
  4. Izsak,R.; Neese,F.; Klopper,W.
     Robust fitting techniques in the chain of spheres approximation to the Fock exchange: The role of the complementary space
     J. Chem. Phys., 2013 139 
     doi.org/10.1063/1.4819264
  5. Neese,F.
     Software update: the ORCA program system, version 4.0
     WIRES Comput. Molec. Sci., 2018 8(1)1-6
     doi.org/10.1002/wcms.1327
  6. Neese,F.; Wennmohs,F.; Becker,U.; Riplinger,C.
     The ORCA quantum chemistry program package
     J. Chem. Phys., 2020 152 Art. No. L224108
     doi.org/10.1063/5.0004608

List of optional additional citations

  1. Neese,F.
     Approximate second-order SCF convergence for spin unrestricted wavefunctions
     Chem. Phys. Lett., 2000 325(1-3)93-98
     doi.org/10.1016/s0009-2614(00)00662-x

Timings for individual modules:

Sum of individual times          ...       14.274 sec (=   0.238 min)
Startup calculation              ...        0.352 sec (=   0.006 min)   2.5 %
SCF iterations                   ...        6.476 sec (=   0.108 min)  45.4 %
Property integrals               ...        0.064 sec (=   0.001 min)   0.5 %
Property calculations            ...        0.064 sec (=   0.001 min)   0.4 %
CIS module                       ...        7.318 sec (=   0.122 min)  51.3 %
                             ****ORCA TERMINATED NORMALLY****
TOTAL RUN TIME: 0 days 0 hours 0 minutes 14 seconds 372 msec
