
                                 *****************
                                 * O   R   C   A *
                                 *****************

                                            #,                                       
                                            ###                                      
                                            ####                                     
                                            #####                                    
                                            ######                                   
                                           ########,                                 
                                     ,,################,,,,,                         
                               ,,#################################,,                 
                          ,,##########################################,,             
                       ,#########################################, ''#####,          
                    ,#############################################,,   '####,        
                  ,##################################################,,,,####,       
                ,###########''''           ''''###############################       
              ,#####''   ,,,,##########,,,,          '''####'''          '####       
            ,##' ,,,,###########################,,,                        '##       
           ' ,,###''''                  '''############,,,                           
         ,,##''                                '''############,,,,        ,,,,,,###''
      ,#''                                            '''#######################'''  
     '                                                          ''''####''''         
             ,#######,   #######,   ,#######,      ##                                
            ,#'     '#,  ##    ##  ,#'     '#,    #''#        ,####,   ,####,        
            ##       ##  ##   ,#'  ##            #'  '#       #'       #'  '#        
            ##       ##  #######   ##           ,######,      #####,   #    #        
            '#,     ,#'  ##    ##  '#,     ,#' ,#      #,     #,   #   #,  ,#        
             '#######'   ##     ##  '#######'  #'      '#     '####' # '####'        



                #########################################################
                #                        -***-                          #
                #          Department of theory and spectroscopy        #
                #                                                       #
                #                      Frank Neese                      #
                #                                                       #
                #     Directorship, Architecture, Infrastructure        #
                #                    SHARK, DRIVERS                     #
                #        Core code/Algorithms in most modules           #
                #                                                       #
                #        Max Planck Institute fuer Kohlenforschung      #
                #                Kaiser Wilhelm Platz 1                 #
                #                 D-45470 Muelheim/Ruhr                 #
                #                      Germany                          #
                #                                                       #
                #                  All rights reserved                  #
                #                        -***-                          #
                #########################################################


                         Program Version 6.0.0  -   RELEASE  -


 With contributions from (in alphabetic order):
   Daniel Aravena         : Magnetic Suceptibility
   Michael Atanasov       : Ab Initio Ligand Field Theory (pilot matlab implementation)
   Alexander A. Auer      : GIAO ZORA, VPT2 properties, NMR spectrum
   Ute Becker             : All parallelization in ORCA, NUMFREQ, NUMCALC
   Giovanni Bistoni       : ED, misc. LED, open-shell LED, HFLD
   Martin Brehm           : Molecular dynamics
   Dmytro Bykov           : pre 5.0 version of the SCF Hessian
   Marcos Casanova-Páez   : Triplet and SCS-CIS(D). UHF-(DLPNO)-IP/EA/STEOM-CCSD. UHF-CVS-IP/STEOM-CCSD
   Vijay G. Chilkuri      : MRCI spin determinant printing, contributions to CSF-ICE
   Pauline Colinet        : FMM embedding
   Dipayan Datta          : RHF DLPNO-CCSD density
   Achintya Kumar Dutta   : EOM-CC, STEOM-CC
   Nicolas Foglia         : Exact transition moments, OPA infrastructure, MCD improvements
   Dmitry Ganyushin       : Spin-Orbit,Spin-Spin,Magnetic field MRCI
   Miquel Garcia          : C-PCM and meta-GGA Hessian, CCSD/C-PCM, Gaussian charge scheme
   Tiago L. C. Gouveia    : GS-ROHF, GS-ROCIS
   Yang Guo               : DLPNO-NEVPT2, F12-NEVPT2, CIM, IAO-localization
   Andreas Hansen         : Spin unrestricted coupled pair/coupled cluster methods
   Ingolf Harden          : AUTO-CI MPn and infrastructure 
   Benjamin Helmich-Paris : MC-RPA, TRAH-(SCF,CASSCF), AVAS, COSX integrals, SCF dyn. polar.
   Lee Huntington         : MR-EOM, pCC
   Robert Izsak           : Overlap fitted RIJCOSX, COSX-SCS-MP3, EOM
   Riya Kayal             : Wick's Theorem for AUTO-CI, AUTO-CI UHF-CCSDT
   Emily Kempfer          : AUTO-CI, RHF CISDT and CCSDT
   Christian Kollmar      : KDIIS, OOCD, Brueckner-CCSD(T), CCSD density, CASPT2, CASPT2-K, improved NEVPT2
   Axel Koslowski         : Symmetry handling
   Simone Kossmann        : Meta GGA functionals, TD-DFT gradient, OOMP2, (MP2 Hessian; deprecated post 5.0)
   Lucas Lang             : DCDCAS
   Marvin Lechner         : AUTO-CI (C++ implementation), FIC-MRCC
   Spencer Leger          : CASSCF response
   Dagmar Lenk            : GEPOL surface, SMD, ORCA-2-JSON
   Dimitrios Liakos       : Extrapolation schemes; Compound Job, initial MDCI parallelization
   Dimitrios Manganas     : Further ROCIS development; embedding schemes. LFT, Crystal Embedding
   Dimitrios Pantazis     : SARC Basis sets
   Anastasios Papadopoulos: AUTO-CI, single reference methods and gradients
   Taras Petrenko         : pre 6.0 DFT Hessian and TD-DFT gradient, (ASA, deprecated), ECA, 1-Electron XAS/XES, NRVS
   Peter Pinski           : DLPNO-MP2, DLPNO-MP2 Gradient
   Christoph Reimann      : Effective Core Potentials
   Marius Retegan         : Local ZFS, SOC
   Christoph Riplinger    : Optimizer, TS searches, QM/MM, DLPNO-CCSD(T), (RO)-DLPNO pert. Triples
   Michael Roemelt        : Original ROCIS implementation
   Masaaki Saitow         : Open-shell DLPNO-CCSD energy and density
   Barbara Sandhoefer     : DKH picture change effects
   Kantharuban Sivalingam : CASSCF convergence/infrastructure, NEVPT2 and variants, FIC-MRCI
   Bernardo de Souza      : ESD, SOC TD-DFT
   Georgi Stoychev        : AutoAux, RI-MP2 NMR, DLPNO-MP2 response, X2C
   Van Anh Tran           : RI-MP2 g-tensors
   Willem Van den Heuvel  : Paramagnetic NMR
   Zikuan Wang            : NOTCH, Electric field optimization 
   Frank Wennmohs         : Technical directorship and infrastructure
   Hang Xu                : AUTO-CI-Response properties 


 We gratefully acknowledge several colleagues who have allowed us to
 interface, adapt or use parts of their codes:
   Stefan Grimme, W. Hujo, H. Kruse, P. Pracht,  : VdW corrections, initial TS optimization,
                  C. Bannwarth, S. Ehlert,         DFT functionals, gCP, sTDA/sTD-DF
                  L. Wittmann, M. Mueller
   Ed Valeev, F. Pavosevic, A. Kumar             : LibInt (2-el integral package), F12 methods
   Garnet Chan, S. Sharma, J. Yang, R. Olivares  : DMRG
   Ulf Ekstrom                                   : XCFun DFT Library
   Mihaly Kallay                                 : mrcc  (arbitrary order and MRCC methods)
   Frank Weinhold                                : gennbo (NPA and NBO analysis)
   Simon Mueller                                 : openCOSMO-RS
   Christopher J. Cramer and Donald G. Truhlar   : smd solvation model
   Lars Goerigk                                  : TD-DFT with DH, B97 family of functionals
   V. Asgeirsson, H. Jonsson                     : NEB implementation
   FAccTs GmbH                                   : IRC, NEB, NEB-TS, DLPNO-Multilevel, CI-OPT
                                                   MM, QMMM, 2- and 3-layer-ONIOM, Crystal-QMMM,
                                                   LR-CPCM, SF, NACMEs, symmetry and pop. for TD-DFT,
                                                   nearIR, NL-DFT gradient (VV10), updates on ESD,
                                                   ML-optimized integration grids, MBIS, APM,
                                                   GOAT, DOCKER, SOLVATOR, interface openCOSMO-RS
   S Lehtola, MJT Oliveira, MAL Marques          : LibXC Library
   Liviu Ungur et al                             : ANISO software


 Your calculation uses the libint2 library for the computation of 2-el integrals
 For citations please refer to: http://libint.valeyev.net

 Your ORCA version has been built with support for libXC version: 6.2.2
 For citations please refer to: https://libxc.gitlab.io

 This ORCA versions uses:
   CBLAS   interface :  Fast vector & matrix operations
   LAPACKE interface :  Fast linear algebra routines
   SCALAPACK package :  Parallel linear algebra routines
   Shared memory     :  Shared parallel matrices


Your calculation utilizes the SMD solvation module
Please cite in your paper:
A.V. Marenich, C.J. Cramer, D.G. Truhlar J. Phys. Chem. B, 113, (2009), 6378 

Warning: RI is on but no J-basis has been assigned. Assigning Def2/J (nothing to worry about!)
================================================================================

cite the ECPs for I  [Def2-ECP] as follows:
Ce-Yb(ecp-28): M. Dolg, H. Stoll, H.Preuss, J. Chem. Phys., 1989, 90, 1730-1734.
Y-Cd(ecp-28), Hf-Hg(ecp-46): D. Andrae,U. Haeussermann, M. Dolg, H. Stoll, H. Preuss, Theor. Chim. Acta, 1990, 77, 123-141.
In-Sb(ecp-28), Tl-Bi(ecp-46): B. Metz, H. Stoll, M. Dolg, J. Chem. Phys., 2000, 113, 2563-2569.
Te-Xe(ecp-28), Po-Rn(ecp-46): K. A. Peterson, D. Figgen, E. Goll, H. Stoll, M. Dolg, J. Chem. Phys., 2003, 119, 11113-11123.
Rb(ecp-28), Cs(ecp-46): T. Leininger, A. Nicklass, W. Kuechle, H. Stoll, M. Dolg, A. Bergner, Chem. Phys. Lett., 1996, 255, 274-280.
Sr(ecp-28), Ba(ecp-46): M. Kaupp, P. V. Schleyer, H. Stoll and H. Preuss, J. Chem. Phys., 1991, 94, 1360-1366.
La(ecp-46): M. Dolg, H. Stoll, A. Savin, H. Preuss, Theor. Chim. Acta, 1989, 75, 173-194.
Lu(ecp-28): X. Cao, M. Dolg, J. Chem. Phys., 2001, 115, 7348-7355.

ECP parameters for I  [Def2-ECP] have been obtained from:
TURBOMOLE (7.0.2)

----- Orbital basis set information -----
Your calculation utilizes the basis: def2-TZVP
   F. Weigend and R. Ahlrichs, Phys. Chem. Chem. Phys. 7, 3297 (2005).

----- AuxJ basis set information -----
Your calculation utilizes the auxiliary basis: def2/J
   F. Weigend, Phys. Chem. Chem. Phys. 8, 1057 (2006).

================================================================================
                                        WARNINGS
                       Please study these warnings very carefully!
================================================================================

WARNING: Old DensityContainer found on disk!
         Will remove this file - 
         If you want to keep old densities, please start your calculation with a different basename. 

INFO   : Checking CIS options ...

WARNING: CIS/ROCIS methods need fully converged wavefunctions
  ===> : Setting SCFConvForced true
         You can overwrite this default with %scf ConvForced false 


================================================================================
                                       INPUT FILE
================================================================================
NAME = ICl_DCM_TDDFT.inp
|  1> !B3LYP def2-TZVP
|  2> 
|  3> %CPCM SMD TRUE
|  4>       SMDSOLVENT "CH2Cl2"
|  5> END
|  6> 
|  7> %TDDFT
|  8>    NROOTS   30
|  9> END
| 10> 
| 11> *xyz 0 1
| 12> Cl         -3.13499722339840      0.29230411390000      0.00000000000000
| 13> I          -0.77443805210160      0.29230411390000      0.00000000000000
| 14> **                         ****END OF INPUT****
================================================================================

                       ****************************
                       * Single Point Calculation *
                       ****************************

---------------------------------
CARTESIAN COORDINATES (ANGSTROEM)
---------------------------------
  Cl    -3.134997    0.292304    0.000000
  I     -0.774438    0.292304    0.000000

----------------------------
CARTESIAN COORDINATES (A.U.)
----------------------------
  NO LB      ZA    FRAG     MASS         X           Y           Z
   0 Cl   17.0000    0    35.453   -5.924286    0.552375    0.000000
   1 I    25.0000*   0   126.900   -1.463476    0.552375    0.000000
* core charge reduced due to ECP

--------------------------------
INTERNAL COORDINATES (ANGSTROEM)
--------------------------------
 Cl     0   0   0     0.000000000000     0.00000000     0.00000000
 I      1   0   0     2.360559171297     0.00000000     0.00000000

---------------------------
INTERNAL COORDINATES (A.U.)
---------------------------
 Cl     0   0   0     0.000000000000     0.00000000     0.00000000
 I      1   0   0     4.460810356667     0.00000000     0.00000000

---------------------
BASIS SET INFORMATION
---------------------
There are 2 groups of distinct atoms

 Group   1 Type Cl  : 14s9p3d1f contracted to 5s5p2d1f pattern {73211/51111/21/1}
 Group   2 Type I   : 11s10p8d2f contracted to 6s5p3d2f pattern {521111/34111/611/11}

Atom   0Cl   basis set group =>   1
Atom   1I    basis set group =>   2
---------------------------------
AUXILIARY/J BASIS SET INFORMATION
---------------------------------
There are 2 groups of distinct atoms

 Group   1 Type Cl  : 14s5p5d2f1g contracted to 8s4p3d1f1g pattern {71111111/2111/311/2/1}
 Group   2 Type I   : 11s5p5d3f1g contracted to 8s4p3d2f1g pattern {41111111/2111/311/21/1}

Atom   0Cl   basis set group =>   1
Atom   1I    basis set group =>   2
-------------------------
ECP PARAMETER INFORMATION
-------------------------

 Group 1, Type I  ECP Def2-ECP (replacing 28 core electrons, lmax=3)

Atom   1I    ECP group =>   1


Checking for AutoStart:
The File: ICl_DCM_TDDFT.gbw exists
Trying to determine its content:
     ... Fine, the file contains calculation information
     ... Fine, the calculation information was read
     ... Fine, the file contains a basis set
     ... Fine, the basis set was read
     ... Fine, the file contains ECP parameters
     ... Fine, ECP parameters were read
     ... Fine, the file contains a geometry
     ... Fine, the geometry was read
     ... Fine, the file contains a set of orbitals
     ... Fine, the orbitals can be read
     => possible old guess file was deleted
     => GBW file was renamed to GES file
     => GES file is set as startup file
     => Guess is set to MORead
     ... now leaving AutoStart

------------------------------------------------------------------------------
                             ORCA STARTUP CALCULATIONS
                           -- RI-GTO INTEGRALS CHOSEN --
------------------------------------------------------------------------------
------------------------------------------------------------------------------
                   ___                                                        
                  /   \      - P O W E R E D   B Y -                         
                 /     \                                                     
                 |  |  |   _    _      __       _____    __    __             
                 |  |  |  | |  | |    /  \     |  _  \  |  |  /  |          
                  \  \/   | |  | |   /    \    | | | |  |  | /  /          
                 / \  \   | |__| |  /  /\  \   | |_| |  |  |/  /          
                |  |  |   |  __  | /  /__\  \  |    /   |      \           
                |  |  |   | |  | | |   __   |  |    \   |  |\   \          
                \     /   | |  | | |  |  |  |  | |\  \  |  | \   \       
                 \___/    |_|  |_| |__|  |__|  |_| \__\ |__|  \__/        
                                                                              
                      - O R C A' S   B I G   F R I E N D -                    
                                      &                                       
                       - I N T E G R A L  F E E D E R -                       
                                                                              
 v1 FN, 2020, v2 2021, v3 2022-2024                                           
------------------------------------------------------------------------------


----------------------
SHARK INTEGRAL PACKAGE
----------------------

Number of atoms                             ...      2
Number of basis functions                   ...     87
Number of shells                            ...     29
Maximum angular momentum                    ...      3
Integral batch strategy                     ... SHARK/LIBINT Hybrid
RI-J (if used) integral strategy            ... SPLIT-RIJ (Revised 2003 algorithm where possible)
Printlevel                                  ...      1
Contraction scheme used                     ... SEGMENTED contraction
Prescreening option                         ... SCHWARTZ
   Thresh                                   ... 1.000e-10
   Tcut                                     ... 1.000e-11
   Tpresel                                  ... 1.000e-11 
Coulomb Range Separation                    ... NOT USED
Exchange Range Separation                   ... NOT USED
Multipole approximations                    ... NOT USED
Finite Nucleus Model                        ... NOT USED
CABS basis                                  ... NOT available
Auxiliary Coulomb fitting basis             ... AVAILABLE
   # of basis functions in Aux-J            ...    109
   # of shells in Aux-J                     ...     35
   Maximum angular momentum in Aux-J        ...      4
Auxiliary J/K fitting basis                 ... NOT available
Auxiliary Correlation fitting basis         ... NOT available
Auxiliary 'external' fitting basis          ... NOT available

Checking pre-screening integrals            ... done (  0.0 sec) Dimension = 29
Check shell pair data                       ... done (  0.0 sec)
Shell pair information
Shell pair cut-off parameter TPreSel        ...   1.0e-11
Total number of shell pairs                 ...       435
Shell pairs after pre-screening             ...       414
Total number of primitive shell pairs       ...      1782
Primitive shell pairs kept                  ...      1417
          la=0 lb=0:     58 shell pairs
          la=1 lb=0:    102 shell pairs
          la=1 lb=1:     53 shell pairs
          la=2 lb=0:     55 shell pairs
          la=2 lb=1:     50 shell pairs
          la=2 lb=2:     15 shell pairs
          la=3 lb=0:     31 shell pairs
          la=3 lb=1:     29 shell pairs
          la=3 lb=2:     15 shell pairs
          la=3 lb=3:      6 shell pairs

Calculating one electron integrals          ... done (  0.0 sec)
Calculating ECP integrals                   ... done (  0.0 sec)
Calculating RI/J V-Matrix + Cholesky decomp.... done (  0.0 sec)
Calculating Nuclear repulsion               ... done (  0.0 sec) ENN=     95.274169045273 Eh

Diagonalization of the overlap matrix:
Smallest eigenvalue                        ... 5.485e-03
Time for diagonalization                   ...    0.001 sec
Threshold for overlap eigenvalues          ... 1.000e-07
Number of eigenvalues below threshold      ... 0
Time for construction of square roots      ...    0.000 sec
Total time needed                          ...    0.001 sec

-------------------
DFT GRID GENERATION
-------------------

General Integration Accuracy     IntAcc      ... 4.388
Radial Grid Type                 RadialGrid  ... OptM3 with GC (2021)
Angular Grid (max. ang.)         AngularGrid ... 4 (Lebedev-302)
Angular grid pruning method      GridPruning ... 4 (adaptive)
Weight generation scheme         WeightScheme... mBecke (2022)
Basis function cutoff            BFCut       ... 1.0000e-10
Integration weight cutoff        WCut        ... 1.0000e-14
Partially contracted basis set               ... off
Rotationally invariant grid construction     ... off
Angular grids for H and He will be reduced by one unit

Total number of grid points                  ...    19154
Total number of batches                      ...      301
Average number of points per batch           ...       63
Average number of grid points per atom       ...     9577

--------------------
COSX GRID GENERATION
--------------------

GRIDX 1
-------
General Integration Accuracy     IntAcc      ... 3.816
Radial Grid Type                 RadialGrid  ... OptM3 with GC (2021)
Angular Grid (max. ang.)         AngularGrid ... 1 (Lebedev-50)
Angular grid pruning method      GridPruning ... 4 (adaptive)
Weight generation scheme         WeightScheme... mBecke (2022)
Basis function cutoff            BFCut       ... 1.0000e-10
Integration weight cutoff        WCut        ... 1.0000e-14
Partially contracted basis set               ... on
Rotationally invariant grid construction     ... off
Angular grids for H and He will be reduced by one unit

Total number of grid points                  ...     8216
Total number of batches                      ...       65
Average number of points per batch           ...      126
Average number of grid points per atom       ...     4108
UseSFitting                                  ... on

GRIDX 2
-------
General Integration Accuracy     IntAcc      ... 4.020
Radial Grid Type                 RadialGrid  ... OptM3 with GC (2021)
Angular Grid (max. ang.)         AngularGrid ... 2 (Lebedev-110)
Angular grid pruning method      GridPruning ... 4 (adaptive)
Weight generation scheme         WeightScheme... mBecke (2022)
Basis function cutoff            BFCut       ... 1.0000e-10
Integration weight cutoff        WCut        ... 1.0000e-14
Partially contracted basis set               ... on
Rotationally invariant grid construction     ... off
Angular grids for H and He will be reduced by one unit

Total number of grid points                  ...     8216
Total number of batches                      ...       65
Average number of points per batch           ...      126
Average number of grid points per atom       ...     4108
UseSFitting                                  ... on

GRIDX 3
-------
General Integration Accuracy     IntAcc      ... 4.338
Radial Grid Type                 RadialGrid  ... OptM3 with GC (2021)
Angular Grid (max. ang.)         AngularGrid ... 3 (Lebedev-194)
Angular grid pruning method      GridPruning ... 4 (adaptive)
Weight generation scheme         WeightScheme... mBecke (2022)
Basis function cutoff            BFCut       ... 1.0000e-10
Integration weight cutoff        WCut        ... 1.0000e-14
Partially contracted basis set               ... on
Rotationally invariant grid construction     ... off
Angular grids for H and He will be reduced by one unit

Total number of grid points                  ...    11266
Total number of batches                      ...       89
Average number of points per batch           ...      126
Average number of grid points per atom       ...     5633
UseSFitting                                  ... on
Initializing property integral containers    ... done (  0.0 sec)

SHARK setup successfully completed in   0.3 seconds

Maximum memory used throughout the entire STARTUP-calculation: 15.1 MB
-------------------------------------------------------------------------------
                                 ORCA GUESS
                   Start orbitals & Density for SCF / CASSCF
-------------------------------------------------------------------------------

------------
SCF SETTINGS
------------
Hamiltonian:
 Density Functional     Method          .... DFT(GTOs)
 Exchange Functional    Exchange        .... B88
   X-Alpha parameter    XAlpha          ....  0.666667
   Becke's b parameter  XBeta           ....  0.004200
 Correlation Functional Correlation     .... LYP
 LDA part of GGA corr.  LDAOpt          .... VWN-5
 Gradients option       PostSCFGGA      .... off
 Hybrid DFT is turned on
   Fraction HF Exchange ScalHFX         ....  0.200000
   Scaling of DF-GGA-X  ScalDFX         ....  0.720000
   Scaling of DF-GGA-C  ScalDFC         ....  0.810000
   Scaling of DF-LDA-C  ScalLDAC        ....  1.000000
   Perturbative correction              ....  0.000000
   NL short-range parameter             ....  4.800000
 RI-approximation to the Coulomb term is turned on
   Number of AuxJ basis functions       .... 109
   RIJ-COSX (HFX calculated with COS-X)).... on


General Settings:
 Integral files         IntName         .... ICl_DCM_TDDFT
 Hartree-Fock type      HFTyp           .... RHF
 Total Charge           Charge          ....    0
 Multiplicity           Mult            ....    1
 Number of Electrons    NEL             ....   42
 Basis Dimension        Dim             ....   87
 Nuclear Repulsion      ENuc            ....     95.2741690453 Eh

Convergence Acceleration:
 AO-DIIS                CNVDIIS         .... on
   Start iteration      DIISMaxIt       ....    12
   Startup error        DIISStart       ....  0.200000
   # of expansion vecs  DIISMaxEq       ....     5
   Bias factor          DIISBfac        ....   1.050
   Max. coefficient     DIISMaxC        ....  10.000
 MO-DIIS                CNVKDIIS        .... off
 Trust-Rad. Augm. Hess. CNVTRAH         .... auto
   Auto Start mean grad. ratio tolernc. ....  1.125000
   Auto Start start iteration           ....     1
   Auto Start num. interpolation iter.  ....    10
   Max. Number of Micro iterations      ....    24
   Max. Number of Macro iterations      .... Maxiter - #DIIS iter
   Number of Davidson start vectors     ....     2
   Converg. threshold    (grad. norm)   ....   5.000e-05
   Grad. Scal. Fac. for Micro threshold ....   0.100
   Minimum threshold for Micro iter.    ....   1.000e-02
   NR start threshold (gradient norm)   ....   1.000e-04
   Initial trust radius                 ....   0.400
   Minimum AH scaling param. (alpha)    ....   1.000
   Maximum AH scaling param. (alpha)    .... 1000.000
   Quad. conv. algorithm                .... NR
   White noise on init. David. guess    .... on
   Maximum white noise                  ....   0.010
   Pseudo random numbers                .... off
   Inactive MOs                         .... canonical
   Orbital update algorithm             .... Taylor
   Preconditioner                       .... Diag
   Full preconditioner red. dimension   ....   250
 SOSCF                  CNVSOSCF        .... on
   Start iteration      SOSCFMaxIt      ....   150
   Startup grad/error   SOSCFStart      ....  0.003300
   Hessian update       SOSCFHessUp     .... L-BFGS
 Level Shifting         CNVShift        .... on
   Level shift para.    LevelShift      ....    0.2500
   Turn off err/grad.   ShiftErr        ....    0.0010
 Zerner damping         CNVZerner       .... off
 Static damping         CNVDamp         .... on
   Fraction old density DampFac         ....    0.7000
   Max. Damping (<1)    DampMax         ....    0.9800
   Min. Damping (>=0)   DampMin         ....    0.0000
   Turn off err/grad.   DampErr         ....    0.1000

SCF Procedure:
 Maximum # iterations   MaxIter         ....   125
 SCF integral mode      SCFMode         .... Direct
   Integral package                     .... SHARK and LIBINT hybrid scheme
 Reset frequency        DirectResetFreq ....    20
 Integral Threshold     Thresh          ....  1.000e-10 Eh
 Primitive CutOff       TCut            ....  1.000e-11 Eh

Convergence Tolerance:
 Convergence Check Mode ConvCheckMode   .... Total+1el-Energy
 Convergence forced     ConvForced      .... 1
 Energy Change          TolE            ....  1.000e-06 Eh
 1-El. energy change                    ....  1.000e-03 Eh
 Orbital Gradient       TolG            ....  5.000e-05
 Orbital Rotation angle TolX            ....  5.000e-05
 DIIS Error             TolErr          ....  1.000e-06

---------------------
INITIAL GUESS: MOREAD
---------------------
Guess MOs are being read from file: ICl_DCM_TDDFT.ges
Input geometry compatible with but different from current geometry
Atom 0: N(Shells)= 13 and 16 - projection required
Input basis set needs projection
NBasis(read)= 105
NBasis(calc)= 87
Basis set overlap was calculated
Using GuessMode=FMatrix for the initial guess
C*T matrix was formed
Effective Fockian was calculated
Effective Fockian was diagonalized
Initial density was built
                      ------------------
                      INITIAL GUESS DONE (   0.0 sec)
                      ------------------
             **** ENERGY FILE WAS UPDATED (ICl_DCM_TDDFT.en.tmp) ****
Finished Guess after   0.0 sec
Maximum memory used throughout the entire GUESS-calculation: 9.4 MB

-------------------------------------------------------------------------------------------
                                      ORCA LEAN-SCF
                              memory conserving SCF solver
-------------------------------------------------------------------------------------------

--------------------
CPCM SOLVATION MODEL
--------------------
CPCM parameters:
  Epsilon                                         ...       8.9300
  Refrac                                          ...       1.4242
  Rsolv                                           ...       1.3000
  Surface type                                    ... GAUSSIAN VDW
  Discretization scheme                           ... Constant charge density
    Threshold for H atoms                         ...       5.0000 (charges/Ang^2)
    Threshold for non-H atoms                     ...       5.0000 (charges/Ang^2)
  Epsilon function type                           ...         CPCM
Solvent:                                          ... DICHLOROMETHANE
SMD-CDS solvent descriptors:
  Soln                                            ...       1.4242
  Soln25                                          ...       1.4212
  Sola                                            ...       0.1000
  Solb                                            ...       0.0500
  Solg                                            ...      39.1500
  Solc                                            ...       0.0000
  Solh                                            ...       0.6670
Radii:
  Scheme                                          ... Element-dependent radii
  Radius for Cl used is    4.4975 Bohr (=   2.3800 Ang.)
  Radius for I  used is    3.7417 Bohr (=   1.9800 Ang.)
Calculating surface                               ...        done! (  0.0s)
Cavity surface points                             ...          422
Cavity Volume                                     ...     522.9083
Cavity Surface-area                               ...     332.5131
Calculating surface distance matrix               ...        done! (  0.0s)
Performing Cholesky decomposition & store         ...        done! (  0.0s)
Overall time for CPCM initialization              ...                 0.0s

----------------------------------------D-I-I-S--------------------------------------------
Iteration    Energy (Eh)           Delta-E    RMSDP     MaxDP     DIISErr   Damp  Time(sec)
-------------------------------------------------------------------------------------------
               ***  Starting incremental Fock matrix formation  ***
    1    -757.8690647835248910     0.00e+00  1.97e-04  5.39e-03  4.25e-01  0.700   0.4
    2    -757.8704386525035943    -1.37e-03  1.30e-04  3.80e-03  2.99e-01  0.700   0.4
    3    -757.8713779525028258    -9.39e-04  8.31e-05  2.66e-03  2.09e-01  0.700   0.4
                               ***Turning on AO-DIIS***
    4    -757.8720337209185800    -6.56e-04  6.87e-05  1.88e-03  1.47e-01  0.700   0.4
    5    -757.8724903999128628    -4.57e-04  4.37e-05  1.32e-03  1.03e-01  0.700   0.4
    6    -757.8728138768409508    -3.23e-04  3.02e-05  9.27e-04  7.21e-02  0.700   0.4
    7    -757.8730415186182654    -2.28e-04  7.09e-05  2.16e-03  5.05e-02  0.000   0.3
                              *** Initializing SOSCF ***
---------------------------------------S-O-S-C-F--------------------------------------
Iteration    Energy (Eh)           Delta-E    RMSDP     MaxDP     MaxGrad    Time(sec)
--------------------------------------------------------------------------------------
    8    -757.8735721692535208    -5.31e-04  2.15e-05  4.09e-04  6.16e-04     0.4
               *** Restarting incremental Fock matrix formation ***
    9    -757.8735723653918512    -1.96e-07  1.93e-05  3.44e-04  1.91e-04     0.4
   10    -757.8735722806036392     8.48e-08  1.17e-05  1.86e-04  1.84e-04     0.4
                 **** Energy Check signals convergence ****

               *****************************************************
               *                     SUCCESS                       *
               *           SCF CONVERGED AFTER  10 CYCLES          *
               *****************************************************

Recomputing exchange energy using gridx3       ... done (    0.481 sec)
Old exchange energy                            :     -9.738197894 Eh
New exchange energy                            :     -9.738215662 Eh
Exchange energy change after final integration :     -0.000017768 Eh
Total energy after final integration           :   -757.873590049 Eh

SMD CDS free energy correction energy :                -0.39690     Kcal/mol
Total Energy after SMD CDS correction =              -757.874222549 Eh
             **** ENERGY FILE WAS UPDATED (ICl_DCM_TDDFT.en.tmp) ****

----------------
TOTAL SCF ENERGY
----------------

Total Energy       :       -757.87422254947660 Eh          -20622.80604 eV

Components:
Nuclear Repulsion  :         95.27416904527264 Eh            2592.54194 eV
Electronic Energy  :       -853.14109416159761 Eh          -23215.14941 eV
One Electron Energy:      -1342.91677610962620 Eh          -36542.62327 eV
Two Electron Energy:        489.77568194802859 Eh           13327.47386 eV
CPCM Dielectric    :         -0.00664716427861 Eh              -0.18088 eV
SMD CDS (Gcds)     :         -0.00063250097335 Eh              -0.01721 eV

Virial components:
Potential Energy   :      -1330.97355516056996 Eh          -36217.63170 eV
Kinetic Energy     :        573.09933261109336 Eh           15594.82567 eV
Virial Ratio       :          2.32241337482724

DFT components:
N(Alpha)           :       20.999996841327 electrons
N(Beta)            :       20.999996841327 electrons
N(Total)           :       41.999993682654 electrons
E(X)               :      -38.696811804948 Eh       
E(C)               :       -1.976308269053 Eh       
E(XC)              :      -40.673120074001 Eh       

CPCM Solvation Model Properties:
Surface-charge          :         -0.04176271727295
Corrected charge        :         -0.00000000000000
Outlying charge corr.   :          0.00015119901341 Eh               0.00411 eV
Free-energy (cav+disp)  :         -0.00063250097335 Eh              -0.01721 eV

---------------
SCF CONVERGENCE
---------------

  Last Energy change         ...   -8.4788e-08  Tolerance :   1.0000e-06
  Last MAX-Density change    ...    1.8633e-04  Tolerance :   1.0000e-05
  Last RMS-Density change    ...    1.1690e-05  Tolerance :   1.0000e-06
  Last DIIS Error            ...    6.1578e-04  Tolerance :   1.0000e-06
  Last Orbital Gradient      ...    1.8448e-04  Tolerance :   5.0000e-05
  Last Orbital Rotation      ...    1.6361e-04  Tolerance :   5.0000e-05


----------------
ORBITAL ENERGIES
----------------

  NO   OCC          E(Eh)            E(eV) 
   0   2.0000    -101.537133     -2762.9658 
   1   2.0000      -9.467849      -257.6333 
   2   2.0000      -7.230427      -196.7499 
   3   2.0000      -7.220306      -196.4745 
   4   2.0000      -7.220306      -196.4745 
   5   2.0000      -6.873920      -187.0489 
   6   2.0000      -4.905291      -133.4797 
   7   2.0000      -4.882819      -132.8682 
   8   2.0000      -4.882819      -132.8682 
   9   2.0000      -1.950902       -53.0867 
  10   2.0000      -1.944833       -52.9216 
  11   2.0000      -1.944833       -52.9216 
  12   2.0000      -1.926358       -52.4189 
  13   2.0000      -1.926328       -52.4181 
  14   2.0000      -0.838796       -22.8248 
  15   2.0000      -0.685615       -18.6565 
  16   2.0000      -0.405326       -11.0295 
  17   2.0000      -0.353928        -9.6309 
  18   2.0000      -0.353928        -9.6309 
  19   2.0000      -0.263971        -7.1830 
  20   2.0000      -0.263971        -7.1830 
  21   0.0000      -0.123577        -3.3627 
  22   0.0000       0.148958         4.0533 
  23   0.0000       0.168609         4.5881 
  24   0.0000       0.168609         4.5881 
  25   0.0000       0.205603         5.5948 
  26   0.0000       0.205603         5.5948 
  27   0.0000       0.211024         5.7423 
  28   0.0000       0.211052         5.7430 
  29   0.0000       0.214646         5.8408 
  30   0.0000       0.309014         8.4087 
  31   0.0000       0.353899         9.6301 
*Only the first 10 virtual orbitals were printed.

                    ********************************
                    * MULLIKEN POPULATION ANALYSIS *
                    ********************************

-----------------------
MULLIKEN ATOMIC CHARGES
-----------------------
   0 Cl:   -0.231805
   1 I :    0.231805
Sum of atomic charges:    0.0000000

--------------------------------
MULLIKEN REDUCED ORBITAL CHARGES
--------------------------------
  0 Cls       :     5.961838  s :     5.961838
      pz      :     3.967174  p :    11.219080
      px      :     3.284732
      py      :     3.967174
      dz2     :     0.005601  d :     0.047822
      dxz     :     0.012710
      dyz     :    -0.000000
      dx2y2   :     0.016802
      dxy     :     0.012710
      f0      :     0.000267  f :     0.003064
      f+1     :     0.000616
      f-1     :     0.000044
      f+2     :     0.000444
      f-2     :     0.000000
      f+3     :     0.001026
      f-3     :     0.000667

  1 I s       :     3.969683  s :     3.969683
      pz      :     3.991545  p :    10.705425
      px      :     2.722336
      py      :     3.991545
      dz2     :     2.007373  d :    10.076762
      dxz     :     2.023631
      dyz     :     1.999994
      dx2y2   :     2.022133
      dxy     :     2.023631
      f0      :     0.001586  f :     0.016324
      f+1     :     0.002949
      f-1     :     0.000264
      f+2     :     0.002643
      f-2     :     0.000006
      f+3     :     0.004911
      f-3     :     0.003964



                     *******************************
                     * LOEWDIN POPULATION ANALYSIS *
                     *******************************

----------------------
LOEWDIN ATOMIC CHARGES
----------------------
   0 Cl:   -0.110605
   1 I :    0.110605

-------------------------------
LOEWDIN REDUCED ORBITAL CHARGES
-------------------------------
  0 Cls       :     5.813001  s :     5.813001
      pz      :     3.945858  p :    11.211546
      px      :     3.319830
      py      :     3.945858
      dz2     :     0.009895  d :     0.080149
      dxz     :     0.020284
      dyz     :     0.000000
      dx2y2   :     0.029686
      dxy     :     0.020284
      f0      :     0.000522  f :     0.005909
      f+1     :     0.001172
      f-1     :     0.000087
      f+2     :     0.000870
      f-2     :     0.000000
      f+3     :     0.001953
      f-3     :     0.001305

  1 I s       :     3.889858  s :     3.889858
      pz      :     3.977834  p :    10.779849
      px      :     2.824181
      py      :     3.977834
      dz2     :     2.023614  d :    10.189875
      dxz     :     2.047707
      dyz     :     1.999993
      dx2y2   :     2.070854
      dxy     :     2.047707
      f0      :     0.002597  f :     0.029814
      f+1     :     0.005985
      f-1     :     0.000433
      f+2     :     0.004329
      f-2     :     0.000006
      f+3     :     0.009970
      f-3     :     0.006493



                      *****************************
                      * MAYER POPULATION ANALYSIS *
                      *****************************

  NA   - Mulliken gross atomic population
  ZA   - Total nuclear charge
  QA   - Mulliken gross atomic charge
  VA   - Mayer's total valence
  BVA  - Mayer's bonded valence
  FA   - Mayer's free valence

  ATOM       NA         ZA         QA         VA         BVA        FA
  0 Cl    17.2318    17.0000    -0.2318     1.0419     1.0419    -0.0000
  1 I     24.7682    25.0000     0.2318     1.0419     1.0419    -0.0000

  Mayer bond orders larger than 0.100000
B(  0-Cl,  1-I ) :   1.0419 

-------
TIMINGS
-------

Total SCF time: 0 days 0 hours 0 min 4 sec 

Total time                  ....       4.245 sec
Sum of individual times     ....       4.240 sec  ( 99.9%)

SCF preparation             ....       0.029 sec  (  0.7%)
Fock matrix formation       ....       4.185 sec  ( 98.6%)
  Startup                   ....       0.001 sec  (  0.0% of F)
  Split-RI-J                ....       0.101 sec  (  2.4% of F)
  Chain of spheres X        ....       3.479 sec  ( 83.1% of F)
  XC integration            ....       0.443 sec  ( 10.6% of F)
    XC Preparation          ....       0.000 sec  (  0.0% of XC)
    Basis function eval.    ....       0.175 sec  ( 39.4% of XC)
    Density eval.           ....       0.066 sec  ( 14.9% of XC)
    XC-Functional eval.     ....       0.030 sec  (  6.9% of XC)
    XC-Potential eval.      ....       0.140 sec  ( 31.5% of XC)
  CPCM terms                ....       0.152 sec  (  3.6% of F)
Diagonalization             ....       0.000 sec  (  0.0%)
Density matrix formation    ....       0.004 sec  (  0.1%)
Total Energy calculation    ....       0.002 sec  (  0.0%)
Population analysis         ....       0.005 sec  (  0.1%)
Orbital Transformation      ....       0.002 sec  (  0.0%)
Orbital Orthonormalization  ....       0.000 sec  (  0.0%)
DIIS solution               ....       0.012 sec  (  0.3%)
SOSCF solution              ....       0.002 sec  (  0.0%)
Finished LeanSCF after   4.3 sec

Maximum memory used throughout the entire LEANSCF-calculation: 9.4 MB

------------------------------------------------------------------------------
                         ORCA PROPERTY INTEGRAL CALCULATIONS
------------------------------------------------------------------------------

GBWName                                   ... ICl_DCM_TDDFT.gbw
Number of atoms                           ...      2
Number of basis functions                 ...     87
Max core memory                           ...   1024 MB

Dipole integrals                          ... YES
Quadrupole integrals                      ...  NO
Linear momentum integrals                 ... YES
Angular momentum integrals                ... YES
Higher moments length integrals           ...  NO
Higher moments velocity integrals         ...  NO
Kinetic energy integrals                  ...  NO
GIAO right hand sides                     ...  NO
GIAO dipole derivative integrals          ...  NO
SOC integrals                             ...  NO
EPR diamagnetic integrals (GIAO)          ...  NO
EPR gauge integrals                       ...  NO
Field gradient integrals                  ...  NO (   0 nuclei)
Spin-dipole/Fermi contact integrals       ...  NO (   0 nuclei)
Contact density integrals                 ...  NO (   0 nuclei)
Nucleus-orbit integrals                   ...  NO (   0 nuclei)
Geometric perturbations                   ...  NO (   2 nuclei)

Choice of electric origin   ... Center of mass
Position of electric origin ... ( -2.4376,  0.5524,  0.0000) 
Choice of magnetic origin   ... GIAO
Position of magnetic origin ... (  0.0000,  0.0000,  0.0000) 

Calculating integrals                     ... Electric Dipole (Length)     done (  0.0 sec)
Calculating integrals                     ... Linear Momentum              done (  0.0 sec)
Calculating integrals                     ... Angular Momentum  (ElOri)    done (  0.0 sec)

Property integrals calculated in   0.0 sec

Maximum memory used throughout the entire PROPINT-calculation: 9.5 MB
------------------------------------------------------------------------------
                        ORCA TD-DFT/TDA CALCULATION
------------------------------------------------------------------------------

Input orbitals are from        ... ICl_DCM_TDDFT.gbw
CI-vector output               ... ICl_DCM_TDDFT.cis
Solver                         ... FN-2001
Tamm-Dancoff approximation     ... operative
CIS-Integral strategy          ... AO-integrals
Integral handling              ... AO integral Direct
Max. core memory used          ... 512 MB
Reference state                ... RHF
Generation of triplets         ... off
Follow IRoot                   ... off
Number of operators            ... 1
Orbital ranges used for CIS calculation:
 Operator 0:  Orbitals   9... 20  to  21... 86
XAS localization array:
 Operator 0:  Orbitals  -1... -1

-------------------
XC-INTEGRATION GRID
-------------------

General Integration Accuracy     IntAcc      ... 3.467
Radial Grid Type                 RadialGrid  ... OptM3 with GC (2021)
Angular Grid (max. ang.)         AngularGrid ... 1 (Lebedev-50)
Angular grid pruning method      GridPruning ... 4 (adaptive)
Weight generation scheme         WeightScheme... mBecke (2022)
Basis function cutoff            BFCut       ... 1.0000e-10
Integration weight cutoff        WCut        ... 1.0000e-14
Partially contracted basis set               ... off
Rotationally invariant grid construction     ... off
Angular grids for H and He will be reduced by one unit

Total number of grid points                  ...     7045
Total number of batches                      ...      111
Average number of points per batch           ...       63
Average number of grid points per atom       ...     3522

---------------------
COSX-INTEGRATION GRID
---------------------

General Integration Accuracy     IntAcc      ... 3.067
Radial Grid Type                 RadialGrid  ... OptM3 with GC (2021)
Angular Grid (max. ang.)         AngularGrid ... 1 (Lebedev-50)
Angular grid pruning method      GridPruning ... 4 (adaptive)
Weight generation scheme         WeightScheme... mBecke (2022)
Basis function cutoff            BFCut       ... 1.0000e-10
Integration weight cutoff        WCut        ... 1.0000e-14
Partially contracted basis set               ... on
Rotationally invariant grid construction     ... off
Angular grids for H and He will be reduced by one unit

Total number of grid points                  ...     5819
Total number of batches                      ...       46
Average number of points per batch           ...      126
Average number of grid points per atom       ...     2910

---------------
TD-DFT XC SETUP
---------------

DFT calculation                         ... on
Name of the grid file                   ... ICl_DCM_TDDFT.grid_cis.tmp
RI-approximation                        ... on
Aux-basis dimension                     ... 0
Exchange functional (TD-DFT)            ... B88
   X-Alpha parameter    XAlpha (TD-DFT) ...  0.666667
   Becke's b parameter  XBeta (TD-DFT)  ...  0.004200
Correlation functional (TD-DFT)         ... LYP
 LDA part of GGA corr.  LDAOpt (TD-DFT) ... VWN-5
Hybrid DFT                              ... on
   Exchange mixing (TD-DFT)             ...  0.200
   GGA exch. scaling (TD-DFT)           ...  0.720
   GGA corr. scaling (TD-DFT)           ...  0.810

Building densities             ... done
Calculating rho(r) on the grid ... done
Building xc-kernel on the grid ... done
                    *** TD-DFT CALCULATION INITIALIZED ***

---------------------------------
    LR-CPCM (non-equilibrium)
---------------------------------

Setting up LR-CPCM             ... done

------------------------
DAVIDSON-DIAGONALIZATION
------------------------

Dimension of the eigenvalue problem            ...    792
Number of roots to be determined               ...     30
Maximum size of the expansion space            ...    300
Maximum number of iterations                   ...    100
Convergence tolerance for the residual         ...    1.000e-06
Convergence tolerance for the energies         ...    1.000e-06
Orthogonality tolerance                        ...    1.000e-14
Level Shift                                    ...    0.000e+00
Constructing the preconditioner                ... o.k.
Building the initial guess                     ... o.k.
Number of trial vectors determined             ...    300


                       ****Iteration    0****
   Time for iteration     :  TOTAL=3.5 TRAFO=0.0 RIJ=0.1 COSX=1.9 XC=1.0
   Size of expansion space: 90
   Lowest Energy          :     0.098513901901
   Maximum Energy change  :     0.509502164513 (vector 29)
   Maximum residual norm  :     0.009783338158

                       ****Iteration    1****
   Time for iteration     :  TOTAL=1.4 TRAFO=0.0 RIJ=0.0 COSX=0.8 XC=0.4
   Size of expansion space: 120
   Lowest Energy          :     0.097058046347
   Maximum Energy change  :     0.004152903738 (vector 20)
   Maximum residual norm  :     0.000079338646

                       ****Iteration    2****
   Time for iteration     :  TOTAL=1.3 TRAFO=0.0 RIJ=0.0 COSX=0.8 XC=0.3
   Size of expansion space: 150
   Lowest Energy          :     0.097056518726
   Maximum Energy change  :     0.000029572708 (vector 10)
   Maximum residual norm  :     0.000000081797

      *** CONVERGENCE OF RESIDUAL NORM REACHED ***

Storing the converged CI vectors               ... ICl_DCM_TDDFT.cis1

                 *** DAVIDSON DONE ***

Total time for solving the CIS problem:     7.080sec

------------------------------------
TD-DFT/TDA EXCITED STATES (SINGLETS)
------------------------------------

the weight of the individual excitations are printed if larger than 1.0e-02

STATE  1:  E=   0.097057 au      2.641 eV    21301.4 cm**-1 <S**2> =   0.000000 Mult 1
    20a ->  21a  :     0.991871 (c= -0.99592738)

STATE  2:  E=   0.097057 au      2.641 eV    21301.4 cm**-1 <S**2> =   0.000000 Mult 1
    19a ->  21a  :     0.991871 (c= -0.99592738)

STATE  3:  E=   0.183778 au      5.001 eV    40334.6 cm**-1 <S**2> =   0.000000 Mult 1
    17a ->  21a  :     0.875162 (c= -0.93550081)
    18a ->  21a  :     0.121772 (c= -0.34895908)

STATE  4:  E=   0.183778 au      5.001 eV    40334.6 cm**-1 <S**2> =   0.000000 Mult 1
    17a ->  21a  :     0.121772 (c= -0.34895908)
    18a ->  21a  :     0.875162 (c=  0.93550081)

STATE  5:  E=   0.297981 au      8.108 eV    65399.3 cm**-1 <S**2> =   0.000000 Mult 1
    16a ->  21a  :     0.852437 (c=  0.92327536)
    19a ->  25a  :     0.056791 (c= -0.23830893)
    20a ->  26a  :     0.056791 (c= -0.23830893)

STATE  6:  E=   0.367207 au      9.992 eV    80592.7 cm**-1 <S**2> =   0.000000 Mult 1
    20a ->  22a  :     0.990310 (c= -0.99514306)

STATE  7:  E=   0.367207 au      9.992 eV    80592.7 cm**-1 <S**2> =   0.000000 Mult 1
    19a ->  22a  :     0.990310 (c=  0.99514306)

STATE  8:  E=   0.384135 au     10.453 eV    84307.8 cm**-1 <S**2> =   0.000000 Mult 1
    19a ->  23a  :     0.488585 (c=  0.69898873)
    20a ->  24a  :     0.488585 (c=  0.69898878)

STATE  9:  E=   0.384184 au     10.454 eV    84318.6 cm**-1 <S**2> =   0.000000 Mult 1
    19a ->  24a  :     0.488395 (c= -0.69885250)
    20a ->  23a  :     0.488395 (c=  0.69885259)

STATE 10:  E=   0.388689 au     10.577 eV    85307.3 cm**-1 <S**2> =   0.000000 Mult 1
    19a ->  23a  :     0.475605 (c= -0.68964104)
    19a ->  24a  :     0.014803 (c=  0.12166953)
    20a ->  23a  :     0.014803 (c=  0.12166948)
    20a ->  24a  :     0.475605 (c=  0.68964096)

STATE 11:  E=   0.416111 au     11.323 eV    91325.9 cm**-1 <S**2> =   0.000000 Mult 1
    15a ->  21a  :     0.019630 (c=  0.14010568)
    17a ->  24a  :     0.012356 (c= -0.11115695)
    18a ->  23a  :     0.012356 (c= -0.11115702)
    19a ->  23a  :     0.013867 (c=  0.11775732)
    19a ->  24a  :     0.445510 (c=  0.66746517)
    20a ->  23a  :     0.445510 (c=  0.66746521)
    20a ->  24a  :     0.013867 (c= -0.11775698)

STATE 12:  E=   0.416883 au     11.344 eV    91495.3 cm**-1 <S**2> =   0.000000 Mult 1
    19a ->  26a  :     0.493518 (c= -0.70250830)
    20a ->  25a  :     0.493521 (c= -0.70251023)

STATE 13:  E=   0.416925 au     11.345 eV    91504.5 cm**-1 <S**2> =   0.000000 Mult 1
    19a ->  25a  :     0.493321 (c=  0.70236819)
    20a ->  26a  :     0.493321 (c= -0.70236808)

STATE 14:  E=   0.417350 au     11.357 eV    91597.8 cm**-1 <S**2> =   0.000000 Mult 1
    19a ->  26a  :     0.489219 (c= -0.69944191)
    20a ->  25a  :     0.489216 (c=  0.69944000)

STATE 15:  E=   0.420054 au     11.430 eV    92191.2 cm**-1 <S**2> =   0.000000 Mult 1
    19a ->  27a  :     0.245374 (c= -0.49535211)
    19a ->  28a  :     0.251781 (c= -0.50177805)
    20a ->  27a  :     0.252508 (c=  0.50250195)
    20a ->  28a  :     0.244667 (c= -0.49463855)

STATE 16:  E=   0.420054 au     11.430 eV    92191.2 cm**-1 <S**2> =   0.000000 Mult 1
    19a ->  27a  :     0.252508 (c= -0.50250192)
    19a ->  28a  :     0.244667 (c=  0.49463853)
    20a ->  27a  :     0.245374 (c= -0.49535213)
    20a ->  28a  :     0.251781 (c= -0.50177807)

STATE 17:  E=   0.430293 au     11.709 eV    94438.3 cm**-1 <S**2> =   0.000000 Mult 1
    19a ->  28a  :     0.063995 (c= -0.25297209)
    20a ->  27a  :     0.065677 (c= -0.25627622)
    20a ->  29a  :     0.856428 (c= -0.92543375)

STATE 18:  E=   0.430293 au     11.709 eV    94438.3 cm**-1 <S**2> =   0.000000 Mult 1
    19a ->  27a  :     0.065677 (c= -0.25627610)
    19a ->  29a  :     0.856428 (c=  0.92543380)
    20a ->  28a  :     0.063995 (c=  0.25297203)

STATE 19:  E=   0.460266 au     12.524 eV   101016.8 cm**-1 <S**2> =   0.000000 Mult 1
    17a ->  22a  :     0.489262 (c=  0.69947280)
    18a ->  22a  :     0.256163 (c= -0.50612591)
    19a ->  27a  :     0.075904 (c= -0.27550770)
    19a ->  28a  :     0.030656 (c= -0.17508899)
    19a ->  29a  :     0.010278 (c= -0.10138174)
    20a ->  27a  :     0.030345 (c= -0.17419688)
    20a ->  28a  :     0.076684 (c=  0.27691864)

STATE 20:  E=   0.460266 au     12.524 eV   101016.8 cm**-1 <S**2> =   0.000000 Mult 1
    17a ->  22a  :     0.256163 (c= -0.50612592)
    18a ->  22a  :     0.489262 (c= -0.69947280)
    19a ->  27a  :     0.030345 (c=  0.17419689)
    19a ->  28a  :     0.076684 (c= -0.27691864)
    20a ->  27a  :     0.075904 (c= -0.27550767)
    20a ->  28a  :     0.030656 (c= -0.17508899)
    20a ->  29a  :     0.010278 (c=  0.10138179)

STATE 21:  E=   0.468182 au     12.740 eV   102754.0 cm**-1 <S**2> =   0.000000 Mult 1
    16a ->  25a  :     0.012840 (c=  0.11331462)
    16a ->  26a  :     0.010898 (c=  0.10439255)
    17a ->  22a  :     0.132851 (c=  0.36448674)
    17a ->  27a  :     0.013163 (c= -0.11473227)
    17a ->  28a  :     0.011072 (c=  0.10522192)
    18a ->  22a  :     0.095397 (c=  0.30886444)
    18a ->  27a  :     0.011041 (c=  0.10507613)
    18a ->  28a  :     0.013200 (c=  0.11489146)
    19a ->  27a  :     0.149702 (c=  0.38691387)
    19a ->  28a  :     0.139199 (c= -0.37309396)
    19a ->  29a  :     0.067089 (c=  0.25901635)
    20a ->  27a  :     0.138270 (c= -0.37184715)
    20a ->  28a  :     0.150708 (c= -0.38821113)
    20a ->  29a  :     0.043681 (c=  0.20899980)

STATE 22:  E=   0.468182 au     12.740 eV   102754.0 cm**-1 <S**2> =   0.000000 Mult 1
    16a ->  25a  :     0.010898 (c= -0.10439255)
    16a ->  26a  :     0.012840 (c=  0.11331461)
    17a ->  22a  :     0.095397 (c= -0.30886444)
    17a ->  27a  :     0.011041 (c=  0.10507613)
    17a ->  28a  :     0.013200 (c=  0.11489146)
    18a ->  22a  :     0.132851 (c=  0.36448675)
    18a ->  27a  :     0.013163 (c=  0.11473227)
    18a ->  28a  :     0.011072 (c= -0.10522193)
    19a ->  27a  :     0.138270 (c= -0.37184720)
    19a ->  28a  :     0.150708 (c= -0.38821113)
    19a ->  29a  :     0.043681 (c= -0.20899974)
    20a ->  27a  :     0.149702 (c= -0.38691382)
    20a ->  28a  :     0.139199 (c=  0.37309394)
    20a ->  29a  :     0.067090 (c=  0.25901642)

STATE 23:  E=   0.478654 au     13.025 eV   105052.3 cm**-1 <S**2> =   0.000000 Mult 1
    15a ->  21a  :     0.116766 (c=  0.34171067)
    16a ->  21a  :     0.041567 (c=  0.20387890)
    16a ->  22a  :     0.121981 (c=  0.34925747)
    16a ->  29a  :     0.018718 (c= -0.13681200)
    17a ->  24a  :     0.069987 (c=  0.26454997)
    18a ->  23a  :     0.069987 (c=  0.26455006)
    19a ->  25a  :     0.263849 (c=  0.51366190)
    20a ->  26a  :     0.263849 (c=  0.51366190)

STATE 24:  E=   0.483602 au     13.159 eV   106138.4 cm**-1 <S**2> =   0.000000 Mult 1
    17a ->  24a  :     0.483322 (c= -0.69521388)
    18a ->  23a  :     0.483322 (c=  0.69521385)

STATE 25:  E=   0.483610 au     13.160 eV   106140.1 cm**-1 <S**2> =   0.000000 Mult 1
    17a ->  23a  :     0.483368 (c= -0.69524653)
    18a ->  24a  :     0.483367 (c= -0.69524613)

STATE 26:  E=   0.484528 au     13.185 eV   106341.5 cm**-1 <S**2> =   0.000000 Mult 1
    17a ->  23a  :     0.466793 (c= -0.68322217)
    17a ->  24a  :     0.010746 (c=  0.10366433)
    17a ->  26a  :     0.019362 (c= -0.13914665)
    18a ->  23a  :     0.010746 (c=  0.10366452)
    18a ->  24a  :     0.466793 (c=  0.68322256)
    18a ->  25a  :     0.019362 (c=  0.13914670)

STATE 27:  E=   0.494150 au     13.446 eV   108453.3 cm**-1 <S**2> =   0.000000 Mult 1
    15a ->  21a  :     0.026479 (c=  0.16272239)
    16a ->  22a  :     0.301634 (c= -0.54921259)
    17a ->  24a  :     0.297996 (c=  0.54588991)
    18a ->  23a  :     0.297996 (c=  0.54588986)
    19a ->  25a  :     0.020066 (c= -0.14165481)
    20a ->  26a  :     0.020066 (c= -0.14165478)

STATE 28:  E=   0.508045 au     13.825 eV   111503.0 cm**-1 <S**2> =   0.000000 Mult 1
    17a ->  23a  :     0.019350 (c= -0.13910474)
    17a ->  26a  :     0.477127 (c=  0.69074403)
    18a ->  24a  :     0.019350 (c=  0.13910479)
    18a ->  25a  :     0.477128 (c= -0.69074421)

STATE 29:  E=   0.509128 au     13.854 eV   111740.7 cm**-1 <S**2> =   0.000000 Mult 1
    17a ->  26a  :     0.490867 (c= -0.70061890)
    18a ->  25a  :     0.490868 (c= -0.70062003)

STATE 30:  E=   0.509165 au     13.855 eV   111748.8 cm**-1 <S**2> =   0.000000 Mult 1
    17a ->  25a  :     0.490820 (c= -0.70058530)
    18a ->  26a  :     0.490810 (c=  0.70057807)


-----------------------------
TD-DFT/TDA-EXCITATION SPECTRA
-----------------------------

Center of mass = ( -2.4376,  0.5524,  0.0000)
Generating CIS transition densities           ... done

----------------------------------------------------------------------------------------------------
                     ABSORPTION SPECTRUM VIA TRANSITION ELECTRIC DIPOLE MOMENTS    
----------------------------------------------------------------------------------------------------
     Transition      Energy     Energy  Wavelength fosc(D2)      D2        DX        DY        DZ   
                      (eV)      (cm-1)    (nm)                 (au**2)    (au)      (au)      (au)  
----------------------------------------------------------------------------------------------------
  0-1A  ->  1-1A    2.641042   21301.4   469.5   0.000111611   0.00172   0.00000  -0.04126   0.00472
  0-1A  ->  2-1A    2.641042   21301.4   469.5   0.000111611   0.00172   0.00000  -0.00472  -0.04126
  0-1A  ->  3-1A    5.000847   40334.6   247.9   0.002143808   0.01750   0.00000   0.04861   0.12302
  0-1A  ->  4-1A    5.000847   40334.6   247.9   0.002143808   0.01750  -0.00000  -0.12302   0.04861
  0-1A  ->  5-1A    8.108474   65399.3   152.9   0.907450245   4.56799   2.13729  -0.00000   0.00000
  0-1A  ->  6-1A    9.992215   80592.7   124.1   0.006989995   0.02855  -0.00000  -0.16816   0.01657
  0-1A  ->  7-1A    9.992215   80592.7   124.1   0.006989995   0.02855   0.00000   0.01657   0.16816
  0-1A  ->  8-1A   10.452836   84307.8   118.6   0.000000000   0.00000  -0.00000  -0.00000   0.00000
  0-1A  ->  9-1A   10.454167   84318.6   118.6   0.000000000   0.00000   0.00000  -0.00000   0.00000
  0-1A  -> 10-1A   10.576760   85307.3   117.2   0.000000000   0.00000  -0.00000  -0.00000  -0.00000
  0-1A  -> 11-1A   11.322969   91325.9   109.5   0.477207169   1.72024   1.31158  -0.00000  -0.00000
  0-1A  -> 12-1A   11.343964   91495.3   109.3   0.000000000   0.00000  -0.00000  -0.00000  -0.00000
  0-1A  -> 13-1A   11.345116   91504.5   109.3   0.000000000   0.00000  -0.00000  -0.00000   0.00000
  0-1A  -> 14-1A   11.356683   91597.8   109.2   0.000000000   0.00000  -0.00000   0.00000  -0.00000
  0-1A  -> 15-1A   11.430255   92191.2   108.5   0.000005323   0.00002   0.00000   0.00297   0.00319
  0-1A  -> 16-1A   11.430255   92191.2   108.5   0.000005323   0.00002  -0.00000  -0.00319   0.00297
  0-1A  -> 17-1A   11.708861   94438.3   105.9   0.067615469   0.23571   0.00000   0.48472  -0.02742
  0-1A  -> 18-1A   11.708861   94438.3   105.9   0.067615469   0.23571  -0.00000  -0.02742  -0.48472
  0-1A  -> 19-1A   12.524480  101016.8    99.0   0.033653174   0.10968   0.00000  -0.18894   0.27199
  0-1A  -> 20-1A   12.524480  101016.8    99.0   0.033653171   0.10968   0.00000  -0.27199  -0.18894
  0-1A  -> 21-1A   12.739877  102754.0    97.3   0.747284888   2.39421  -0.00000  -1.02288  -1.16100
  0-1A  -> 22-1A   12.739877  102754.0    97.3   0.747284889   2.39421  -0.00000  -1.16100   1.02288
  0-1A  -> 23-1A   13.024825  105052.3    95.2   1.523384922   4.77397   2.18494  -0.00000  -0.00000
  0-1A  -> 24-1A   13.159479  106138.4    94.2   0.000000000   0.00000  -0.00000  -0.00000   0.00000
  0-1A  -> 25-1A   13.159695  106140.1    94.2   0.000000000   0.00000   0.00000   0.00000   0.00000
  0-1A  -> 26-1A   13.184667  106341.5    94.0   0.000000000   0.00000   0.00000  -0.00000  -0.00000
  0-1A  -> 27-1A   13.446499  108453.3    92.2   0.135093837   0.41008  -0.64037   0.00000  -0.00000
  0-1A  -> 28-1A   13.824609  111503.0    89.7   0.000000000   0.00000  -0.00000  -0.00000   0.00000
  0-1A  -> 29-1A   13.854084  111740.7    89.5   0.000000000   0.00000   0.00002  -0.00000  -0.00000
  0-1A  -> 30-1A   13.855086  111748.8    89.5   0.000000000   0.00000  -0.00001   0.00000  -0.00000

----------------------------------------------------------------------------------------------------
                     ABSORPTION SPECTRUM VIA TRANSITION VELOCITY DIPOLE MOMENTS    
----------------------------------------------------------------------------------------------------
     Transition      Energy     Energy  Wavelength fosc(P2)      P2        PX        PY        PZ   
                      (eV)      (cm-1)    (nm)                 (au**2)    (au)      (au)      (au)  
----------------------------------------------------------------------------------------------------
  0-1A  ->  1-1A    2.641042   21301.4   469.5   0.070326530   0.01024  -0.00000   0.10053  -0.01149
  0-1A  ->  2-1A    2.641042   21301.4   469.5   0.070326529   0.01024   0.00000   0.01149   0.10053
  0-1A  ->  3-1A    5.000847   40334.6   247.9   0.000023805   0.00001   0.00000  -0.00094  -0.00238
  0-1A  ->  4-1A    5.000847   40334.6   247.9   0.000023805   0.00001  -0.00000   0.00238  -0.00094
  0-1A  ->  5-1A    8.108474   65399.3   152.9   0.289464974   0.12938  -0.35970  -0.00000  -0.00000
  0-1A  ->  6-1A    9.992215   80592.7   124.1   0.008117091   0.00447   0.00000   0.06654  -0.00656
  0-1A  ->  7-1A    9.992215   80592.7   124.1   0.008117091   0.00447  -0.00000  -0.00656  -0.06654
  0-1A  ->  8-1A   10.452836   84307.8   118.6   0.000000000   0.00000  -0.00000   0.00000   0.00000
  0-1A  ->  9-1A   10.454167   84318.6   118.6   0.000000000   0.00000  -0.00000   0.00000  -0.00000
  0-1A  -> 10-1A   10.576760   85307.3   117.2   0.000000000   0.00000   0.00000   0.00000   0.00000
  0-1A  -> 11-1A   11.322969   91325.9   109.5   0.321226667   0.20050  -0.44777   0.00000   0.00000
  0-1A  -> 12-1A   11.343964   91495.3   109.3   0.000000000   0.00000   0.00001   0.00000   0.00000
  0-1A  -> 13-1A   11.345116   91504.5   109.3   0.000000000   0.00000   0.00000   0.00000  -0.00000
  0-1A  -> 14-1A   11.356683   91597.8   109.2   0.000000000   0.00000   0.00000  -0.00000   0.00000
  0-1A  -> 15-1A   11.430255   92191.2   108.5   0.000004204   0.00000  -0.00000  -0.00111  -0.00119
  0-1A  -> 16-1A   11.430255   92191.2   108.5   0.000004204   0.00000   0.00000   0.00119  -0.00111
  0-1A  -> 17-1A   11.708861   94438.3   105.9   0.085427348   0.05514  -0.00000  -0.23444   0.01326
  0-1A  -> 18-1A   11.708861   94438.3   105.9   0.085427348   0.05514   0.00000   0.01326   0.23444
  0-1A  -> 19-1A   12.524480  101016.8    99.0   0.009287936   0.00641  -0.00000   0.04568  -0.06577
  0-1A  -> 20-1A   12.524480  101016.8    99.0   0.009287935   0.00641   0.00000   0.06577   0.04568
  0-1A  -> 21-1A   12.739877  102754.0    97.3   0.338684349   0.23785   0.00000   0.32240   0.36593
  0-1A  -> 22-1A   12.739877  102754.0    97.3   0.338684366   0.23785   0.00000   0.36593  -0.32240
  0-1A  -> 23-1A   13.024825  105052.3    95.2   0.714563410   0.51304  -0.71627   0.00000   0.00000
  0-1A  -> 24-1A   13.159479  106138.4    94.2   0.000000000   0.00000   0.00000   0.00000  -0.00000
  0-1A  -> 25-1A   13.159695  106140.1    94.2   0.000000000   0.00000  -0.00000  -0.00000  -0.00000
  0-1A  -> 26-1A   13.184667  106341.5    94.0   0.000000000   0.00000  -0.00000   0.00000   0.00000
  0-1A  -> 27-1A   13.446499  108453.3    92.2   0.056579151   0.04194   0.20479  -0.00000  -0.00000
  0-1A  -> 28-1A   13.824609  111503.0    89.7   0.000000000   0.00000   0.00000   0.00000  -0.00000
  0-1A  -> 29-1A   13.854084  111740.7    89.5   0.000000000   0.00000   0.00000   0.00000   0.00000
  0-1A  -> 30-1A   13.855086  111748.8    89.5   0.000000000   0.00000  -0.00000  -0.00000   0.00000

------------------------------------------------------------------------------------------
                     CD SPECTRUM VIA TRANSITION ELECTRIC DIPOLE MOMENTS    
------------------------------------------------------------------------------------------
     Transition      Energy     Energy  Wavelength    R        MX        MY        MZ   
                      (eV)      (cm-1)    (nm)   (1e40*cgs)   (au)      (au)      (au)  
------------------------------------------------------------------------------------------
  0-1A  ->  1-1A    2.641042   21301.4   469.5    0.00000  -0.00000  -0.03465  -0.30322
  0-1A  ->  2-1A    2.641042   21301.4   469.5   -0.00000   0.00000   0.30322  -0.03465
  0-1A  ->  3-1A    5.000847   40334.6   247.9   -0.00000  -0.00000   0.22340  -0.08827
  0-1A  ->  4-1A    5.000847   40334.6   247.9    0.00000  -0.00000   0.08827   0.22340
  0-1A  ->  5-1A    8.108474   65399.3   152.9    0.00000  -0.00000  -0.00000   0.00000
  0-1A  ->  6-1A    9.992215   80592.7   124.1    0.00000   0.00000  -0.02727  -0.27674
  0-1A  ->  7-1A    9.992215   80592.7   124.1   -0.00000   0.00000  -0.27674   0.02727
  0-1A  ->  8-1A   10.452836   84307.8   118.6   -0.00000  -0.00000   0.00000   0.00000
  0-1A  ->  9-1A   10.454167   84318.6   118.6    0.00000   0.00000   0.00000   0.00000
  0-1A  -> 10-1A   10.576760   85307.3   117.2    0.00000  -0.00000   0.00000   0.00000
  0-1A  -> 11-1A   11.322969   91325.9   109.5    0.00000  -0.00000  -0.00000   0.00000
  0-1A  -> 12-1A   11.343964   91495.3   109.3    0.00000   0.00000  -0.00000   0.00000
  0-1A  -> 13-1A   11.345116   91504.5   109.3   -0.00000  -0.00000   0.00000   0.00000
  0-1A  -> 14-1A   11.356683   91597.8   109.2   -0.00000   0.00000  -0.00000  -0.00000
  0-1A  -> 15-1A   11.430255   92191.2   108.5    0.00000   0.00000   0.00118  -0.00110
  0-1A  -> 16-1A   11.430255   92191.2   108.5   -0.00000   0.00000   0.00110   0.00118
  0-1A  -> 17-1A   11.708861   94438.3   105.9   -0.00000   0.00000  -0.00242  -0.04278
  0-1A  -> 18-1A   11.708861   94438.3   105.9    0.00000  -0.00000  -0.04278   0.00242
  0-1A  -> 19-1A   12.524480  101016.8    99.0    0.00000   0.00000   0.52589   0.36530
  0-1A  -> 20-1A   12.524480  101016.8    99.0   -0.00000  -0.00000  -0.36530   0.52589
  0-1A  -> 21-1A   12.739877  102754.0    97.3   -0.00000   0.00000  -0.36599   0.32245
  0-1A  -> 22-1A   12.739877  102754.0    97.3   -0.00000  -0.00000   0.32245   0.36599
  0-1A  -> 23-1A   13.024825  105052.3    95.2    0.00000  -0.00000  -0.00000   0.00000
  0-1A  -> 24-1A   13.159479  106138.4    94.2   -0.00000  -0.00000   0.00000   0.00000
  0-1A  -> 25-1A   13.159695  106140.1    94.2   -0.00000   0.00000  -0.00000  -0.00000
  0-1A  -> 26-1A   13.184667  106341.5    94.0   -0.00000  -0.00000  -0.00000  -0.00000
  0-1A  -> 27-1A   13.446499  108453.3    92.2   -0.00000  -0.00000   0.00000   0.00000
  0-1A  -> 28-1A   13.824609  111503.0    89.7    0.00000  -0.00000   0.00000   0.00000
  0-1A  -> 29-1A   13.854084  111740.7    89.5   -0.00000   0.00000  -0.00000   0.00000
  0-1A  -> 30-1A   13.855086  111748.8    89.5    0.00000   0.00000  -0.00000  -0.00000

------------------------------------------------------------------------------------------
                     CD SPECTRUM VIA TRANSITION VELOCITY DIPOLE MOMENTS    
------------------------------------------------------------------------------------------
     Transition      Energy     Energy  Wavelength    R        MX        MY        MZ   
                      (eV)      (cm-1)    (nm)   (1e40*cgs)   (au)      (au)      (au)  
------------------------------------------------------------------------------------------
  0-1A  ->  1-1A    2.641042   21301.4   469.5    0.00000  -0.00000  -0.03465  -0.30322
  0-1A  ->  2-1A    2.641042   21301.4   469.5   -0.00000   0.00000   0.30322  -0.03465
  0-1A  ->  3-1A    5.000847   40334.6   247.9   -0.00000  -0.00000   0.22340  -0.08827
  0-1A  ->  4-1A    5.000847   40334.6   247.9    0.00000  -0.00000   0.08827   0.22340
  0-1A  ->  5-1A    8.108474   65399.3   152.9    0.00000  -0.00000  -0.00000   0.00000
  0-1A  ->  6-1A    9.992215   80592.7   124.1    0.00000   0.00000  -0.02727  -0.27674
  0-1A  ->  7-1A    9.992215   80592.7   124.1   -0.00000   0.00000  -0.27674   0.02727
  0-1A  ->  8-1A   10.452836   84307.8   118.6    0.00000  -0.00000   0.00000   0.00000
  0-1A  ->  9-1A   10.454167   84318.6   118.6   -0.00000   0.00000   0.00000   0.00000
  0-1A  -> 10-1A   10.576760   85307.3   117.2    0.00000  -0.00000   0.00000   0.00000
  0-1A  -> 11-1A   11.322969   91325.9   109.5    0.00000  -0.00000  -0.00000   0.00000
  0-1A  -> 12-1A   11.343964   91495.3   109.3    0.00000   0.00000  -0.00000   0.00000
  0-1A  -> 13-1A   11.345116   91504.5   109.3   -0.00000  -0.00000   0.00000   0.00000
  0-1A  -> 14-1A   11.356683   91597.8   109.2   -0.00000   0.00000  -0.00000  -0.00000
  0-1A  -> 15-1A   11.430255   92191.2   108.5    0.00000   0.00000   0.00118  -0.00110
  0-1A  -> 16-1A   11.430255   92191.2   108.5   -0.00000   0.00000   0.00110   0.00118
  0-1A  -> 17-1A   11.708861   94438.3   105.9   -0.00000   0.00000  -0.00242  -0.04278
  0-1A  -> 18-1A   11.708861   94438.3   105.9    0.00000  -0.00000  -0.04278   0.00242
  0-1A  -> 19-1A   12.524480  101016.8    99.0    0.00000   0.00000   0.52589   0.36530
  0-1A  -> 20-1A   12.524480  101016.8    99.0   -0.00000  -0.00000  -0.36530   0.52589
  0-1A  -> 21-1A   12.739877  102754.0    97.3   -0.00000   0.00000  -0.36599   0.32245
  0-1A  -> 22-1A   12.739877  102754.0    97.3   -0.00000  -0.00000   0.32245   0.36599
  0-1A  -> 23-1A   13.024825  105052.3    95.2    0.00000  -0.00000  -0.00000   0.00000
  0-1A  -> 24-1A   13.159479  106138.4    94.2   -0.00000  -0.00000   0.00000   0.00000
  0-1A  -> 25-1A   13.159695  106140.1    94.2   -0.00000   0.00000  -0.00000  -0.00000
  0-1A  -> 26-1A   13.184667  106341.5    94.0   -0.00000  -0.00000  -0.00000  -0.00000
  0-1A  -> 27-1A   13.446499  108453.3    92.2   -0.00000  -0.00000   0.00000   0.00000
  0-1A  -> 28-1A   13.824609  111503.0    89.7    0.00000  -0.00000   0.00000   0.00000
  0-1A  -> 29-1A   13.854084  111740.7    89.5    0.00000   0.00000  -0.00000   0.00000
  0-1A  -> 30-1A   13.855086  111748.8    89.5   -0.00000   0.00000  -0.00000  -0.00000

Total run time:        7.160 sec

           *** ORCA-CIS/TD-DFT FINISHED WITHOUT ERROR ***
-----------------------
CIS/TD-DFT TOTAL ENERGY
-----------------------

    E(SCF)  =   -757.874222549 Eh
    DE(CIS) =      0.097056519 Eh (Root  1)
    ----------------------------- ---------
    E(tot)  =   -757.777166031 Eh


Maximum memory used throughout the entire CIS-calculation: 54.4 MB
=> NOW LEAVING ORCA_CIS

-------------------------   --------------------
FINAL SINGLE POINT ENERGY      -757.777166030751
-------------------------   --------------------


------------------------------------------------------------------------------
                              ORCA PROPERTY CALCULATIONS
------------------------------------------------------------------------------

GBWName                                 ... ICl_DCM_TDDFT.gbw
Number of atoms                         ...      2
Number of basis functions               ...     87
Max core memory                         ...   1024 MB

Electric properties:
Dipole moment                           ... YES
Quadrupole moment                       ...  NO
Static polarizability (Dipole/Dipole)   ...  NO
Static polarizability (Dipole/Quad.)    ...  NO
Static polarizability (Quad./Quad.)     ...  NO
Static polarizability (Velocity)        ...  NO

Atomic electric properties:
Dipole moment                           ...  NO
Quadrupole moment                       ...  NO
Static polarizability                   ...  NO

Choice of electric origin               ... Center of mass
Position of electric origin             ...    -2.437582     0.552375     0.000000

General magnetic properties:
Magnetizability                         ...  NO

EPR properties:
g-Tensor (aka g-matrix)                 ...  NO
Zero-Field splitting spin-orbit         ...  NO
Zero-field splitting spin-spin          ...  NO
Hyperfine couplings                     ...  NO (   0 nuclei)
Quadrupole couplings                    ...  NO (   0 nuclei)
Contact density                         ...  NO (   0 nuclei)

NMR properties:
Chemical shifts                         ...  NO (   0 nuclei)
Spin-rotation constants                 ...  NO (   0 nuclei)
Spin-spin couplings                     ...  NO (   0 nuclei,    0 pairs)

Choice of magnetic origin               ... GIAO
Position of magnetic origin             ...     0.000000     0.000000     0.000000

Properties with geometric perturbations:
SCF Hessian                             ...  NO
IR spectrum                             ...  NO
VCD spectrum                            ...  NO
X-ray spectroscopy properties:
SCF XES/XAS/RIXS spectra                ...  NO


-------------
DIPOLE MOMENT
-------------

Method             : SCF
Type of density    : Electron Density
Multiplicity       :   1
Irrep              :   0
Energy             :  -757.8742225494765989 Eh
Relativity type    : 
Basis              : AO
                                X                 Y                 Z
Electronic contribution:     35.784197762      -0.000000011       0.000000002
Nuclear contribution   :    -34.921303844       0.000000000       0.000000000
                        -----------------------------------------
Total Dipole Moment    :      0.862893918      -0.000000011       0.000000002
                        -----------------------------------------
Magnitude (a.u.)       :      0.862893918
Magnitude (Debye)      :      2.193302035



--------------------
Rotational spectrum 
--------------------
 
Rotational constants in cm-1:             0.000000             0.109172             0.109172 
Rotational constants in MHz :             0.000000          3272.905959          3272.905959 

Dipole components along the rotational axes: 
x,y,z [a.u.] :     0.862894    -0.000000     0.000000 
x,y,z [Debye]:     2.193302    -0.000000     0.000000 

 

Dipole moment calculation done in   0.0 sec 

Maximum memory used throughout the entire PROP-calculation: 6.4 MB

--------------------------------
SUGGESTED CITATIONS FOR THIS RUN
--------------------------------

Below you find a list of papers that are relevant to this ORCA run
We neither can nor want to force you to cite these papers, but we appreciate if you do
You receive ORCA, which is the product of decades of hard work by many enthusiastic individuals, for free
The only thing we kindly ask in return is that you cite our papers,
We deeply appreciate it, if you show your appreciation for ORCA by not just citing the generic ORCA reference.

Please note that relegating all ORCA citations to the supporting information does *not* help us.
SI sections are not indexed - citations you put there will not count into any citation statistics
But we need these citations in order to attract the funding resources that allow us to do what we are doing

Therefore, if you are a happy ORCA user, please consider citing a few of the papers listed below in the main body of your paper

In addition to the list printed below, the program has created the file ICl_DCM_TDDFT.bibtex that contains the list in bibtex format
You can import this file easily into all common literature databanks and citation aid programs


List of essential papers. We consider these as the minimum necessary citations

  1. Neese,F.
     Software update: the ORCA program system, version 5.0
     WIRES Comput. Molec. Sci., 2022 12(1)e1606
     doi.org/10.1002/wcms.1606

List of papers to cite with high priority. The work reported in these papers was absolutely
necessary for this run to complete.
Our perspective: the developers of density functionals and basis sets usually get cited in chemistry papers
Good! But without the algorithms to do something with them, the functionals or basis sets would not do anything.
Hence, in our opinion, the algorithm design and method developments papers are equally worthy of getting cited

  1. Neese,F.; Olbrich,G.
     Efficient use of the resolution of the identity approximation in time-dependent density functional calculations with hybrid density functionals
     Chem. Phys. Lett., 2002 362 170-178
     doi.org/10.1016/s0009-2614(02)01053-9
  2. Neese,F.
     An improvement of the resolution of the identity approximation for the formation of the Coulomb matrix
     J. Comp. Chem., 2003 24(14)1740-1747
     doi.org/10.1002/jcc.10318
  3. Neese,F.; Wennmohs,F.; Hansen,A.; Becker,U.
     Efficient, approximate and parallel Hartree-Fock and hybrid DFT calculations. A 'chain-of-spheres' algorithm for the Hartree-Fock exchange
     Chem. Phys., 2009 356(1-3)98-109
     doi.org/10.1016/j.chemphys.2008.10.036
  4. Garcia-Rates,M.; Neese,F.
     Effect of the Solute Cavity on the Solvation Energy and its Derivatives within the Framework of the Gaussian Charge Scheme
     J. Comput. Chem., 2020 41 922-939
     doi.org/10.1002/jcc.26139
  5. Helmich-Paris,B.; de Souza,B.; Neese,F.; Izsák,R.
     An improved chain of spheres for exchange algorithm
     J. Chem. Phys., 2021 155 104109
     doi.org/doi: 10.1063/5.0058766.
  6. Neese,F.
     The SHARK Integral Generation and Digestion System
     J. Comp. Chem., 2022  1-16
     doi.org/10.1002/jcc.26942

List of suggested additional citations. These are papers that are important in the 'surrounding' of 
of this run, or papers that preceded the highly important papers. If you like your results we are grateful for a citation.

  1. Izsak,R.; Neese,F.
     An overlap fitted chain of spheres exchange method
     J. Chem. Phys., 2011 135 144105
     doi.org/10.1063/1.3646921
  2. Izsak,R.; Hansen,A.; Neese,F.
     The resolution of identity and chain of spheres approximations for the LPNO-CCSD singles Fock term
     Molec. Phys., 2012 110 2413-2417
     doi.org/10.1080/00268976.2012.687466
  3. Neese,F.
     The ORCA program system
     WIRES Comput. Molec. Sci., 2012 2(1)73-78
     doi.org/10.1002/wcms.81
  4. Izsak,R.; Neese,F.; Klopper,W.
     Robust fitting techniques in the chain of spheres approximation to the Fock exchange: The role of the complementary space
     J. Chem. Phys., 2013 139 
     doi.org/10.1063/1.4819264
  5. Neese,F.
     Software update: the ORCA program system, version 4.0
     WIRES Comput. Molec. Sci., 2018 8(1)1-6
     doi.org/10.1002/wcms.1327
  6. Neese,F.; Wennmohs,F.; Becker,U.; Riplinger,C.
     The ORCA quantum chemistry program package
     J. Chem. Phys., 2020 152 Art. No. L224108
     doi.org/10.1063/5.0004608

List of optional additional citations

  1. Neese,F.
     Approximate second-order SCF convergence for spin unrestricted wavefunctions
     Chem. Phys. Lett., 2000 325(1-3)93-98
     doi.org/10.1016/s0009-2614(00)00662-x

Timings for individual modules:

Sum of individual times          ...       11.983 sec (=   0.200 min)
Startup calculation              ...        0.294 sec (=   0.005 min)   2.5 %
SCF iterations                   ...        4.358 sec (=   0.073 min)  36.4 %
Property integrals               ...        0.060 sec (=   0.001 min)   0.5 %
Property calculations            ...        0.063 sec (=   0.001 min)   0.5 %
CIS module                       ...        7.209 sec (=   0.120 min)  60.2 %
                             ****ORCA TERMINATED NORMALLY****
TOTAL RUN TIME: 0 days 0 hours 0 minutes 12 seconds 59 msec
